# Source : patch face_Object01
# Faces  : 53
# Time	sum(magSf)	areaAverage(T)	areaAverage(X)	areaAverage(p)	areaAverage(Qr)
90	0.0263509	309.566	4.98082e-05	100039	-40.0195
