
75
(
-41.8678
-44.9065
-35.5282
-37.2941
-47.5048
-46.82
-46.7713
-40.8632
-49.8142
-40.32
-26.6685
-34.1181
-40.6422
-56.0619
-46.4875
-29.8946
-49.6159
-42.611
-38.0083
-40.6266
-27.7827
-69.7966
-99.4177
-40.3812
-41.8877
-27.4062
-31.8557
-25.1818
-33.4925
-32.3752
-40.3691
-36.029
-47.2534
-47.8141
-37.7862
-41.312
-34.1424
-36.2425
-33.203
-48.2149
-49.3355
-43.7066
-31.4955
-31.4826
-93.0825
-70.0614
-30.799
-64.2917
-44.01
-31.9298
-30.0712
-28.8635
-29.5493
-31.1499
-32.1467
-29.6137
-28.7879
-26.696
-31.2367
-32.1543
-27.8303
-31.7259
-28.8275
-31.032
-29.7076
-31.738
-98.2134
-35.9394
-30.311
-28.1157
-29.623
-31.603
-33.502
-30.972
-29.7628
)
