
75
(
309.262
309.675
308.939
308.346
309.998
309.878
310.321
308.471
310.295
309.008
306.882
307.837
310.105
311.627
310.104
307.542
310.919
309.739
309
309.929
307.281
314.781
319.77
308.646
308.752
307.333
309.402
306.584
310.154
307.861
309.857
308.118
310.84
310.625
309.168
308.963
307.9
308.836
308.519
310.775
310.916
309.921
307.701
308.031
318.45
314.4
307.413
313.756
309.705
307.94
308.261
307.996
308.338
307.624
307.742
307.863
308.239
308.264
308.569
307.813
307.521
309.435
309.517
307.655
307.476
307.941
318.532
308.484
307.569
307.18
307.491
307.623
308.086
308.044
307.827
)
