# Source : cellZone face_T
# Cells  : 209
# Time	sum(V)	volAverage(T)	volAverage(X)	volAverage(p)	volAverage(Qr)
270	0.00323678	301.358	0.0104494	100039	0
