
52
(
-31.9396
-27.2231
-33.0074
-11.5415
-39.3845
-55.0947
-30.8697
-35.2332
-18.0327
-18.9895
-31.7352
-20.5898
-42.4239
-39.9796
-40.7655
-19.6797
-49.3127
-37.302
-44.4882
-41.3687
-10.5508
-20.5854
-44.9136
-22.7909
-23.5684
-31.5022
-35.9462
-27.5375
-55.1403
-53.0706
-38.3273
-38.5285
-33.4214
-35.6134
-18.4938
-53.4293
-57.8812
-45.2655
-41.9709
-41.2947
-46.4867
-33.7247
-13.7049
-48.2624
-35.7563
-28.7895
-48.543
-32.7483
-58.261
-53.5467
-54.1465
-44.9712
)
