
52
(
309.275
309.334
309.783
306.52
310.416
312.686
307.415
310.892
307.362
307.268
309.524
308.55
309.648
310.974
310.116
306.581
312.025
309.551
310.839
308.93
305.819
306.893
309.71
307.6
307.245
310.011
311.015
309.534
311.342
310.904
311.61
311.68
310.434
310.481
307.515
310.976
311.89
310.873
310.244
310.267
311.196
310.358
305.254
310.72
310.71
310.115
310.522
310.386
312.382
310.996
314.153
309.759
)
