
120
(
-32.9724
-58.507
-28.5669
-22.8847
-30.5013
-28.2345
-36.7996
-21.9598
-54.0089
-31.2483
-24.5964
-31.6393
-25.6967
-30.3621
-31.8263
-26.1718
-19.2688
-29.4421
-29.3694
-50.4506
-41.2448
-31.557
-54.3261
-32.4742
-26.5655
-31.01
-21.137
-20.9453
-34.7542
-35.6362
-22.331
-29.4369
-32.4141
-23.6264
-24.5944
-47.7377
-24.846
-17.6354
-31.3815
-25.5506
-30.953
-32.7959
-38.55
-29.9381
-27.9515
-29.6055
-32.33
-31.0252
-28.8575
-39.0443
-29.144
-36.2168
-36.9708
-35.9728
-34.4769
-30.1846
-31.845
-55.5876
-35.5864
-31.69
-23.5514
-28.9533
-39.8378
-30.6387
-43.8706
-18.3569
-23.0858
-29.825
-35.6098
-20.2534
-32.3794
-41.2799
-32.2128
-44.7776
-63.3257
-25.6691
-34.9195
-20.6387
-25.1825
-32.0802
-40.8587
-28.0399
-24.3561
-30.5086
-12.9972
-47.6892
-61.086
-19.567
-41.7112
-26.2588
-22.2298
-19.8712
-20.6744
-27.0417
-50.7974
-43.6524
-29.0159
-35.0615
-30.017
-39.534
-34.1832
-26.3702
-29.7025
-18.8951
-25.52
-35.5678
-32.4655
-21.1974
-41.2608
-45.1827
-46.5954
-21.7712
-31.0297
-20.9981
-24.6728
-42.3065
-21.6559
-25.9344
-13.6391
-34.9896
)
