
120
(
308.187
313.351
307.489
307.322
307.393
307.41
308.077
305.42
312.412
307.217
307.905
307.341
306.96
307.314
308.661
307.266
306.74
306.531
307.331
310.616
309.109
307.583
312.223
308.058
307.695
307.292
307.579
306.668
307.804
307.872
305.51
307.861
307.05
307.663
306.76
310.981
308.31
306.625
307.838
307.497
306.726
307.605
311.322
309.472
307.759
308.403
307.448
307.274
307.296
309.739
306.487
310.015
308.329
310.221
307.997
307.213
307.393
312.474
308.05
307.371
307.179
309.047
309.012
308.682
310.081
306.798
307.49
308.041
307.692
306.484
307.417
308.993
307.667
309.76
312.957
306.163
307.67
305.694
307.102
309.568
309.301
307.818
307.309
308.031
304.893
310.558
312.975
306.406
309.136
306.592
306.696
306.584
306.666
306.472
311.123
309.716
307.903
307.556
306.564
311.335
307.541
306.546
307.894
307.584
306.384
307.721
307.068
306.717
309.021
310.031
312.213
307.207
307.242
306.491
307.109
309.287
305.924
306.336
305.308
307.587
)
