
64
(
-23.1155
-41.7845
-38.4467
-26.536
-42.7742
-23.495
-50.6635
-33.5232
-29.6562
-32.1629
-42.5633
-41.2342
-16.7985
-23.4483
-52.0308
-26.0618
-50.1609
-29.8186
-29.5974
-39.3531
-29.5682
-46.86
-41.0363
-33.4161
-37.0508
-24.5571
-15.5352
-38.1165
-45.3285
-17.2207
-42.2654
-36.2376
-9.9812
-35.7506
-34.5862
-30.6181
-33.2891
-25.6707
-42.0382
-33.3134
-61.7925
-18.2521
-33.2706
-26.6981
-49.9665
-36.8634
-42.9912
-36.0695
-27.3851
-23.0072
-35.6525
-32.9611
-46.908
-36.1774
-21.1141
-29.0915
-24.7163
-56.1512
-46.9353
-46.6549
-34.2298
-35.2292
-21.2922
-60.5327
)
