
64
(
308.202
310.211
310.189
308.57
310.827
310.573
310.875
307.859
311.26
309.701
310.381
310.246
305.903
310.402
311.121
311.103
310.578
311.469
309.984
310.336
307.662
313.781
310.955
307.963
309.193
310.488
305.885
309.6
310.99
306.152
310.045
310.3
307.969
311.014
309.537
308.172
308.875
310.399
309.978
309.431
312.43
305.771
308.777
307.866
311.652
309.375
310.301
309.503
308.417
308.156
309.166
309.142
310.097
311.351
308.32
310.086
308.158
311.945
310.006
309.947
308.091
311.255
308.624
312.359
)
