
41
(
-45.637
-38.9132
-36.5571
-39.7816
-51.8879
-54.6642
-39.248
-38.2965
-39.1198
-53.7822
-52.44
-43.5981
-34.3411
-36.4556
-40.6983
-33.8915
-42.4761
-34.9584
-61.8974
-51.9454
-57.2926
-52.9358
-49.0015
-54.743
-18.8577
-35.0706
-51.4022
-43.8479
-36.7621
-63.5953
-44.6585
-38.5864
-45.8056
-43.5622
-29.7821
-37.3998
-27.124
-28.6495
-35.8456
-25.6972
-26.3104
)
