
41
(
310.927
308.554
308.247
308.838
312.92
313.5
308.723
308.393
308.866
313.265
314.101
311.931
310.483
310.945
311.677
310.31
312.216
310.668
314.933
313.43
314.284
313.58
313.338
313.576
308.075
309.279
312.47
309.242
309.81
314.102
309.306
308.992
311.702
309.31
307.508
308.278
307.516
307.555
308.323
307.47
310.615
)
