
97
(
-34.1915
-55.4276
-21.2808
-21.3144
-21.5216
-26.5394
-27.4273
-22.0914
-30.1094
-22.5939
-34.8412
-25.2053
-54.8855
-28.6837
-25.7957
-28.7609
-22.1249
-23.3423
-40.528
-26.5025
-26.3102
-28.4108
-35.1085
-25.6706
-26.997
-30.8147
-25.8749
-28.1551
-22.0279
-22.9512
-36.5509
-25.5572
-26.5791
-21.9962
-22.2963
-32.6155
-24.1781
-48.3065
-27.5894
-25.7374
-26.6731
-29.462
-25.9492
-27.5007
-32.6425
-26.2541
-31.3535
-28.1486
-27.1143
-29.5095
-21.5344
-26.1528
-24.63
-24.113
-28.5181
-26.0573
-21.8635
-23.696
-21.3482
-25.685
-24.8766
-27.2813
-20.3732
-20.6029
-24.3088
-17.8423
-21.5252
-19.8152
-21.0606
-21.9703
-21.011
-19.1478
-17.7065
-21.6042
-20.8245
-24.4007
-33.8998
-21.4087
-23.3815
-21.2197
-22.1178
-19.8682
-21.5042
-21.3584
-20.4695
-23.3322
-30.5317
-20.9439
-20.1151
-20.0694
-22.2874
-27.3064
-17.414
-19.843
-25.6479
-18.3883
-21.1158
)
