
97
(
309.13
311.829
305.88
305.867
305.905
306.875
307.077
305.869
307.586
306.013
308.585
306.532
312.015
307.165
306.788
307.318
305.882
306.179
309.745
306.752
306.007
306.344
307.47
305.924
306.114
306.746
306.788
307.209
305.86
306.099
309.01
306.57
306.929
305.847
305.935
308.131
306.354
311.019
306.963
305.969
306.062
306.517
305.956
306.191
307.055
306.308
307.253
306.675
306.478
306.923
305.923
307.066
306.563
307.189
308.188
307.625
305.989
306.397
305.89
306.742
307.382
307.891
305.603
305.327
305.848
305.167
305.415
305.588
305.389
305.502
306.34
305.477
305.346
306.602
306.344
306.372
308.39
306.646
306.655
305.817
306.733
305.694
305.933
306.578
305.782
306.196
307.656
305.85
305.735
305.586
306.043
306.994
305.335
305.557
306.631
305.402
305.445
)
