
960
(
1.31
1.46745
1.60935
1.72828
1.81508
1.86141
1.86068
1.81096
1.71445
1.57675
1.40926
1.22557
1.03944
0.864045
0.708065
0.576889
0.470927
0.387624
0.320251
0.260344
0.19666
0.112821
-0.0146249
-0.172963
1.36233
1.54975
1.72549
1.88091
2.00611
2.09008
2.12387
2.10145
2.02169
1.88884
1.7132
1.50946
1.29484
1.08568
0.89494
0.730474
0.594102
0.48295
0.389406
0.302456
0.20696
0.0846928
-0.0789988
-0.227365
1.38456
1.59559
1.80194
1.99438
2.16149
2.29034
2.36826
2.38523
2.33536
2.21943
2.0454
1.82817
1.58716
1.34266
1.11178
0.905994
0.729133
0.578824
0.447695
0.325103
0.197621
0.0523834
-0.108465
-0.216222
1.37851
1.60448
1.83533
2.06176
2.27155
2.44996
2.58095
2.64938
2.64405
2.56011
2.4014
2.18092
1.91914
1.63978
1.36517
1.11081
0.884071
0.68426
0.506232
0.343016
0.187123
0.0330553
-0.105898
-0.169845
1.34636
1.57822
1.82505
2.07919
2.32872
2.55776
2.74742
2.87814
2.93211
2.8977
2.77201
2.56333
2.29091
1.98139
1.66204
1.35461
1.07104
0.813686
0.580981
0.372297
0.188635
0.0328974
-0.0777781
-0.0997648
1.2923
1.52078
1.77399
2.04656
2.32847
2.60439
2.85397
3.05389
3.18057
3.21401
3.1422
2.96571
2.69913
2.36946
2.0092
1.64793
1.30415
0.984689
0.691004
0.429139
0.212048
0.054075
-0.026684
-0.00469875
1.22326
1.43915
1.68803
1.96773
2.27104
2.58446
2.88895
3.15945
3.36769
3.48553
3.49039
3.37155
3.13441
2.80243
2.41154
2.00025
1.59725
1.21472
0.855473
0.530104
0.267111
0.10038
0.0501864
0.121621
1.14612
1.34187
1.57658
1.85095
2.16113
2.49795
2.84542
3.17996
3.47133
3.68531
3.78864
3.75623
3.57966
3.27239
2.86917
2.4172
1.95864
1.51558
1.09055
0.691712
0.367146
0.181145
0.162148
0.290674
1.06928
1.23879
1.45052
1.70706
2.00847
2.35076
2.72313
3.10664
3.47305
3.78573
4.00308
4.08586
4.00675
3.76138
3.3747
2.89735
2.3886
1.88926
1.4045
0.928984
0.531042
0.31526
0.324916
0.514788
0.999158
1.13927
1.3216
1.54978
1.82744
2.15557
2.53026
2.93979
3.36195
3.76304
4.09869
4.31814
4.37444
4.23765
3.90989
3.43293
2.88044
2.32428
1.79113
1.25015
0.784559
0.534902
0.559889
0.801155
0.941274
1.05129
1.20089
1.39372
1.63548
1.93148
2.28461
2.6915
3.13962
3.60405
4.04481
4.40742
4.6292
4.65192
4.44142
4.00985
3.42692
2.80221
2.22606
1.64926
1.16077
0.890924
0.891314
1.14597
0.898414
0.98022
1.09739
1.25209
1.45052
1.70082
2.01086
2.38566
2.82356
3.31274
3.8249
4.31287
4.7093
4.93387
4.91121
4.60049
4.02981
3.31883
2.6718
2.09716
1.69756
1.44878
1.33485
1.52108
0.870133
0.928445
1.0168
1.13492
1.28828
1.48563
1.73795
2.05583
2.44752
2.91492
3.44694
4.01361
4.55894
4.99813
5.2251
5.13748
4.68165
3.91063
3.09999
2.53954
2.42176
2.24826
1.86871
1.85843
0.856587
0.896361
0.961032
1.04745
1.15921
1.30409
1.49305
1.73918
2.05663
2.45833
2.95039
3.52599
4.15467
4.77023
5.26248
5.48215
5.27284
4.55137
3.56916
3.09546
3.50624
3.54192
2.69718
2.2743
0.855593
0.881917
0.928736
0.990272
1.0678
1.16699
1.29663
1.46893
1.6992
2.00571
2.40695
2.91719
3.53849
4.24436
4.95896
5.53411
5.73929
5.31192
4.31649
4.04749
4.88531
4.6764
3.40452
2.71723
0.864116
0.881548
0.916032
0.959899
1.01239
1.07651
1.15825
1.26678
1.41484
1.62005
1.90485
2.2968
2.82509
3.50955
4.33734
5.21837
5.91638
5.99358
5.20449
5.2008
6.06803
5.29883
3.68063
2.96125
0.87946
0.891729
0.918455
0.950864
0.986687
1.02746
1.07652
1.13941
1.22491
1.34666
1.52461
1.78951
2.18531
2.76695
3.58566
4.63891
5.75277
6.38978
6.03864
6.06312
6.60365
5.32713
3.56184
2.97861
0.899908
0.909365
0.931485
0.957094
0.983692
1.01173
1.04325
1.08163
1.13285
1.20702
1.3206
1.50226
1.79989
2.28522
3.05023
4.16759
5.55736
6.6766
6.71197
6.48554
6.77223
5.17611
3.36907
2.92379
0.921683
0.931162
0.951593
0.974495
0.998135
1.02295
1.05128
1.08688
1.13563
1.20821
1.3209
1.50257
1.80185
2.29189
3.06797
4.20638
5.62521
6.75884
6.81521
6.61442
6.85566
5.20668
3.37885
2.93417
0.944568
0.955997
0.977659
1.00248
1.02954
1.06097
1.10101
1.1557
1.2346
1.35212
1.52824
1.79421
2.19478
2.787
3.6246
4.70506
5.85082
6.53165
6.25246
6.28135
6.87817
5.49485
3.63568
3.03077
0.966332
0.983217
1.01056
1.04306
1.08185
1.13177
1.1999
1.29629
1.43492
1.63508
1.91944
2.31624
2.8566
3.56324
4.42594
5.35302
6.09867
6.21305
5.41952
5.38669
6.43481
5.60132
3.85055
3.08519
0.989785
1.01494
1.05301
1.10059
1.16172
1.24366
1.35693
1.51497
1.73508
2.03773
2.44201
2.96363
3.60738
4.35059
5.12125
5.7688
6.04319
5.63083
4.52023
4.20276
5.23701
5.02978
3.65295
2.9223
1.01872
1.05591
1.10952
1.18025
1.27461
1.40172
1.57415
1.80656
2.11527
2.51576
3.01548
3.60842
4.26602
4.92447
5.47389
5.75769
5.594
4.84842
3.73428
3.22272
3.78694
3.87654
2.98605
2.53781
1.05509
1.10921
1.18544
1.28757
1.42376
1.60457
1.84238
2.14977
2.53666
3.00699
3.55046
4.13706
4.71031
5.18399
5.44803
5.39044
4.93777
4.11803
3.21492
2.63147
2.59207
2.45591
2.116
2.13201
1.10058
1.17621
1.28146
1.42165
1.60551
1.84251
2.14252
2.51182
2.95032
3.44658
3.97214
4.47784
4.89312
5.13368
5.11899
4.80156
4.2029
3.44304
2.75025
2.16942
1.80859
1.58946
1.54101
1.78006
1.15422
1.25558
1.39466
1.57654
1.80825
2.09657
2.4458
2.85373
3.30802
3.7827
4.2358
4.60916
4.83537
4.85171
4.6218
4.15804
3.53442
2.87146
2.27256
1.69451
1.2309
0.996476
1.06303
1.38098
1.2414
1.35529
1.5241
1.74348
2.01598
2.34292
2.72107
3.13837
3.57178
3.98452
4.32855
4.54833
4.59214
4.42784
4.05925
3.53484
2.93833
2.35211
1.80588
1.26739
0.829121
0.622493
0.706922
1.01271
1.33279
1.49716
1.68531
1.92277
2.21634
2.56023
2.94146
3.3387
3.71991
4.0438
4.26381
4.33519
4.22747
3.9367
3.49385
2.95983
2.40588
1.88008
1.38626
0.917613
0.553936
0.386599
0.452114
0.707689
1.40284
1.59903
1.83829
2.10163
2.39889
2.73378
3.09037
3.4409
3.74853
3.97201
4.07164
4.01754
3.7993
3.43342
2.96344
2.44817
1.94148
1.47116
1.03715
0.648415
0.363771
0.230992
0.269198
0.467324
1.47051
1.68734
1.94617
2.24065
2.54084
2.85145
3.16138
3.44547
3.66844
3.79313
3.78936
3.64145
3.35414
2.95533
2.49061
2.01022
1.55348
1.13784
0.764961
0.448995
0.228407
0.120078
0.13391
0.282575
1.52942
1.75896
2.02605
2.32022
2.62593
2.90406
3.1551
3.36324
3.50069
3.53786
3.45418
3.24504
2.92483
2.525
2.08715
1.65122
1.24544
0.881907
0.563508
0.304527
0.127951
0.0335622
0.0284112
0.139359
1.57332
1.80775
2.07213
2.35308
2.63222
2.87902
3.07459
3.20914
3.26924
3.23586
3.09717
2.85622
2.53145
2.15303
1.7555
1.36902
1.0135
0.697112
0.422347
0.202706
0.0511667
-0.0384684
-0.0585359
0.0257635
1.59784
1.82912
2.08132
2.33911
2.58216
2.7918
2.93067
3.00009
2.99705
2.91251
2.74183
2.49241
2.18319
1.84017
1.49037
1.15553
0.848147
0.572542
0.330964
0.135175
-0.00674327
-0.099978
-0.133427
-0.0679025
1.60005
1.8207
2.05297
2.28046
2.48277
2.64518
2.73326
2.75177
2.70343
2.58702
2.4034
2.16206
1.88082
1.58077
1.28177
0.997588
0.735586
0.496147
0.280331
0.0974958
-0.0460495
-0.150531
-0.199308
-0.149224
1.57871
1.78265
1.98889
2.18065
2.33982
2.45224
2.50113
2.48313
2.40531
2.27264
2.08978
1.86687
1.61958
1.3644
1.11512
0.879934
0.660916
0.455236
0.262088
0.0871583
-0.064292
-0.186594
-0.255966
-0.223089
1.53392
1.71682
1.89233
2.04589
2.16276
2.23238
2.25009
2.20778
2.11379
1.97668
1.80309
1.6037
1.39159
1.1794
0.976424
0.786521
0.608179
0.4363
0.267182
0.101375
-0.0582343
-0.202171
-0.300112
-0.293419
1.46776
1.62524
1.76863
1.88583
1.96612
2.00256
1.99311
1.93493
1.83457
1.70065
1.54149
1.36698
1.18834
1.01494
0.852702
0.702967
0.562596
0.425272
0.28409
0.134191
-0.0265341
-0.189982
-0.323886
-0.359821
1.38292
1.51266
1.62367
1.70705
1.75573
1.7654
1.73623
1.66885
1.56851
1.44314
1.30134
1.15207
1.00432
0.864578
0.73679
0.621081
0.51426
0.40974
0.299433
0.174031
0.0260776
-0.144483
-0.314132
-0.415394
1.28401
1.38337
1.46121
1.51249
1.53401
1.52409
1.48275
1.41236
1.31783
1.20631
1.08521
0.962044
0.842619
0.731734
0.631637
0.542301
0.460988
0.38267
0.299797
0.203341
0.0820675
-0.07413
-0.263206
-0.44026
1.17491
1.24174
1.28877
1.3143
1.31647
1.29426
1.24888
1.18293
1.10083
1.0082
0.910514
0.812395
0.7174
0.628983
0.548134
0.47509
0.407259
0.342161
0.273918
0.19721
0.102611
-0.0215474
-0.18647
-0.442603
)
