
78
(
-31.1625
-52.658
-53.7291
-77.7108
-42.6567
-48.1584
-51.2642
-56.1301
-48.2548
-36.1648
-52.0731
-58.6982
-82.4928
-48.5439
-24.1875
-23.2476
-35.7698
-49.0664
-44.1133
-44.9146
-49.9235
-45.7552
-45.9954
-40.5857
-25.3696
-25.3146
-47.0147
-43.2552
-36.0213
-26.2809
-26.9105
-28.2373
-53.8006
-50.9976
-60.1375
-65.222
-32.2959
-26.9028
-52.3039
-50.3487
-23.5135
-27.2091
-33.0092
-40.2157
-29.8216
-36.7011
-45.6473
-34.4242
-32.45
-42.5316
-33.1199
-33.1067
-27.8323
-28.3772
-34.9646
-29.905
-35.5979
-36.3482
-34.5577
-35.1771
-38.2836
-27.4614
-36.1067
-35.636
-39.4082
-25.3209
-30.3435
-29.0578
-30.1184
-37.5508
-47.1812
-27.0727
-35.5556
-35.7693
-30.5475
-40.2928
-27.5619
-43.5769
)
