
78
(
307.634
311.968
311.675
316.262
309.197
310.122
311.518
311.599
310.35
307.775
312.096
312.276
316.724
310.311
306.756
307.723
307.835
310.904
309.309
309.807
310.712
311.094
310.138
309.16
308.461
306.598
310.951
311.595
307.655
306.784
307.023
307.465
311.597
311.083
313.128
313.278
307.92
306.948
311.35
310.877
306.816
307.731
308.094
308.946
307.419
308.221
309.974
309.204
309.587
309.265
308.279
308.158
307.456
307.551
309.11
309.755
309.251
309.53
307.852
309.371
309.785
307.878
309.173
308.665
308.679
307.175
308.107
307.666
307.5
308.289
310.169
307.68
308.809
308.703
307.831
309.237
307.242
309.808
)
