
134
(
-17.554
-20.2833
-13.2602
-23.8778
-19.1777
-25.3562
-7.36225
-21.56
-19.7055
-15.8704
-7.9676
-12.4247
-10.0828
-14.2818
-14.2815
-26.6558
-22.3693
-18.9162
-20.6651
-12.211
-24.6071
-21.0697
-17.7574
-21.5206
-14.6489
-15.5525
-21.563
-13.6513
-11.7489
2.15249
-21.074
-11.1364
-13.0273
-20.9648
-12.6828
-22.3934
-12.1285
-25.7664
-9.92946
-22.2428
-12.3279
-25.1501
-20.1064
-4.85856
-20.1167
-25.0213
-11.4543
-2.18829
-26.6827
-12.7077
-14.4735
-19.7644
-26.1083
-18.6522
-15.681
-22.867
-9.61223
-14.3546
-15.909
-11.094
-19.1472
-16.2765
-28.6081
-27.7867
-11.856
-28.7911
-21.735
-28.2613
-26.085
-27.9416
-23.9097
-10.8059
-21.5127
-13.0856
-45.5405
-10.8608
-14.3196
-27.2395
-11.5703
-29.299
-11.3599
-27.9844
-27.3678
-22.7133
-29.814
-27.4786
-14.3492
-19.3788
-22.1126
-14.2703
-30.9275
-28.1165
-25.3402
-25.4515
-23.0085
-11.9906
-26.6569
-28.0011
-20.3961
-13.45
-8.71528
-19.5188
-28.3015
-26.4254
-27.7222
-12.4519
-17.8399
-12.7593
-20.0459
-18.3153
-7.289
-24.7573
-20.9008
-23.5042
-19.2148
-33.1592
-15.7452
-12.0661
-12.7648
-8.39849
-24.6347
-13.68
-18.9409
-38.1319
-30.7401
-21.0971
-7.57223
-10.5832
-20.2627
-18.2948
-19.939
-22.6457
-17.9003
-16.0666
)
