
134
(
307.113
306.712
305.543
307.402
307.21
308.442
304.723
308.475
308.482
305.786
304.609
306.486
305.137
305.549
305.405
309.281
307.095
306.455
306.843
305.67
308.309
308.592
308.284
307.686
305.383
305.679
308.335
305.463
305.159
304.222
307.542
305.514
306.166
307.455
305.766
307.241
305.346
307.839
305.473
307.733
305.903
307.744
306.757
304.702
308.273
308.357
307.161
305.541
309.208
305.379
306.363
307.301
308.87
307.179
307.733
308.302
307.015
304.942
307.575
305.806
307.228
307.104
308.21
308.07
305.717
308.274
307.752
308.401
308.263
307.091
308.278
305.691
307.538
305.869
312.453
305.905
306.084
307.956
305.618
308.349
305.533
308.111
308.186
307.23
310.034
308.537
305.629
307.136
307.352
306.055
309.589
308.563
308.651
306.786
307.839
305.695
307.769
308.026
306.755
305.84
305.655
306.989
308.075
307.721
307.983
305.545
307.309
305.724
308.124
306.755
304.551
307.498
307.207
308.611
306.059
308.777
307.498
305.636
306.335
304.986
308.575
305.642
307.253
311.209
308.511
308.168
304.71
305.968
307.791
307.77
307.649
308.245
308.468
305.107
)
