
53
(
-36.3688
-45.3668
-41.8729
-39.302
-43.4627
-42.4978
-33.3091
-63.2459
-25.9918
-55.8785
-26.7735
-43.6046
-37.9184
-64.772
-43.4434
-45.5616
-22.8492
-27.4734
-40.3204
-38.8131
-23.4799
-34.8561
-35.5823
-58.3865
-38.786
-33.9136
-38.405
-38.2422
-28.7663
-39.3208
-38.7421
-34.602
-36.9968
-35.4014
-37.9733
-39.9618
-41.8215
-42.5184
-27.5876
-39.2784
-36.4988
-41.9537
-41.0274
-35.7341
-37.4466
-37.6426
-32.5385
-32.5223
-66.735
-30.937
-33.2621
-53.7764
-68.4098
)
