
53
(
309.636
310.818
310.164
310.986
310.448
309.849
309.201
314.928
309.519
312.466
309.635
309.597
309.04
314.337
310.912
312.637
309.048
306.842
308.643
308.526
307.147
308.842
308.851
312.343
308.813
308.566
308.434
309.043
308.087
308.841
308.203
308.718
308.439
308.653
308.469
309.715
309.376
309.124
306.858
308.462
307.932
309.29
309.015
308.175
308.515
308.018
308.327
307.671
313.693
307.836
308.947
312.665
313.984
)
