
130
(
-13.8942
-28.6633
-11.4849
-25.3913
-19.6621
-10.2322
-21.6254
-12.4777
-22.7071
-11.7112
-10.8538
-15.066
-15.284
-44.4522
-24.9506
-10.2487
-27.5031
-20.1825
-13.1575
-10.6019
-21.2741
-10.4535
-32.1804
-11.4554
-17.6497
-19.5648
-15.376
-20.3661
-25.1945
-4.55672
-19.967
-27.2804
-7.05372
-28.5879
-11.6649
-23.616
-4.2163
-25.9966
-25.9574
-30.0019
-20.0204
-16.9963
-15.3327
-10.5282
-24.4995
-29.0946
-12.0216
-26.3901
-14.7171
-29.113
-14.2687
-13.4562
-27.3692
-14.7574
-20.9075
-19.469
-14.2916
-22.4932
-25.5098
-19.9783
-8.20418
-20.1252
-20.6172
-27.5003
-12.433
-11.6787
-23.4506
-21.7982
-12.5153
-23.6178
-9.15635
-21.6423
-12.4334
-27.6051
-22.0121
-23.7293
-23.6039
-24.0793
-27.3069
-14.9427
-6.25131
-27.4256
-10.6149
-18.1974
-22.5064
-9.08652
-21.3484
-21.6211
-24.6534
-21.9569
-24.2773
-21.5315
-13.9063
-9.00025
5.64071
-22.6814
-25.4807
-26.1805
-21.7102
-22.7765
-20.9379
-25.6306
-10.0499
-24.5304
-25.6383
-1.85123
-29.3842
-15.2009
-23.4462
-6.33335
-17.7844
-20.843
-1.90454
-15.6418
-20.5463
-11.1513
-9.02482
-24.476
-19.4285
-16.5864
-28.1711
-13.0402
-7.35885
-12.6021
-9.41603
-19.3371
-12.7321
-40.1491
-16.4613
-12.2414
)
