
130
(
308.173
308.355
305.227
307.771
307.244
305.323
307.68
306.065
307.781
305.566
305.503
306.768
306.606
312.39
308.083
305.52
308.161
306.768
305.849
305.413
307.514
305.343
310.476
305.731
306.668
307.665
306.616
307.331
308.07
304.603
307.37
308.834
304.651
308.136
305.258
307.357
304
308.592
307.71
308.342
306.731
306.756
307.24
306.919
307.547
308.14
305.64
308.953
306.709
309.616
307.204
305.655
307.983
306.145
307.926
307.931
305.658
307.06
307.601
306.682
304.796
307.107
306.612
309.397
306.232
306.566
307.457
307.518
305.083
309.031
305.68
308.951
305.705
307.955
306.971
307.3
307.757
307.799
308.395
305.548
304.422
309.56
305.925
308.097
307.086
304.712
308.743
308.311
307.741
307.056
307.461
307.006
306.251
305.363
304.091
307.225
308.149
307.766
307.028
307.206
307.025
308.739
305.344
307.369
309.035
305.61
309.028
307.625
309.238
304.37
306.893
307.802
304.235
306.971
307.575
305.519
305.646
306.595
308.197
308.091
309.082
307.432
304.784
305.739
305.515
307.254
306.631
309.89
306.878
307.176
)
