#          x          1.2
#          y          1.6
#          z          1.1
#       Time
          60   1.0131e+05
         120   1.0131e+05
         180   1.0131e+05
         240   1.0131e+05
         300   1.0131e+05
         360   1.0131e+05
         420   1.0131e+05
         480   1.0131e+05
         540   1.0131e+05
         600   1.0131e+05
         660   1.0131e+05
         720   1.0131e+05
         780   1.0131e+05
         840   1.0131e+05
         900   1.0131e+05
