#          x          1.2
#          y          1.6
#          z          1.1
#       Time
          60            (0.055834 0.028077 -0.011472)
         120            (0.0080043 0.043736 -0.046775)
         180            (0.046401 0.027141 -0.0027501)
         240            (0.048968 0.033527 0.010733)
         300            (0.048793 0.024976 0.011741)
         360            (0.045201 0.027708 0.0073879)
         420            (0.031525 0.041241 -0.0050598)
         480            (0.036837 0.038617 -0.00062386)
         540            (0.03187 0.039047 -0.0020362)
         600            (0.030603 0.034305 -0.00039048)
         660            (0.039176 0.036924 0.0017189)
         720            (0.034564 0.036036 -0.00091582)
         780            (0.0354 0.035403 9.5006e-05)
         840            (0.035383 0.035669 0.00037233)
         900            (0.035618 0.035565 0.00087386)
