
60
(
-58.2436
-37.7911
-47.4416
-68.0479
-32.7043
-47.942
-55.4732
-33.4755
-47.4758
-51.6243
-45.1291
-48.6584
-56.8142
-77.4368
-35.8665
-53.6883
-58.4897
-58.284
-42.8099
-65.7198
-69.4663
-25.3715
-52.6977
-44.9564
-50.256
-48.603
-40.0899
-49.9259
-52.5943
-35.4126
-48.5025
-47.9294
-52.1604
-58.5882
-56.7936
-45.1831
-49.6467
-38.8266
-51.3003
-50.2758
-39.0198
-47.2834
-65.4956
-54.8067
-45.5197
-29.3762
-49.8792
-45.4494
-53.5733
-59.3866
-52.1384
-59.0063
-46.1495
-13.9236
-30.7513
-52.6654
-58.5265
-51.1836
-55.8818
-19.5825
)
