
60
(
313.682
309.842
312.042
314.766
308.074
311.843
311.039
309.472
312.038
310.677
311.044
310.769
311.327
318.214
310.447
312.161
315.485
312.798
313.058
315.675
314.719
307.994
312.082
311.876
310.45
310.266
309.825
310.784
313.959
310.177
310.36
313.042
310.932
313.55
313.349
313.057
310.276
311.723
310.701
310.598
311.152
311.659
315.016
312.693
311.241
310.739
313.182
310.096
310.967
313.902
310.619
314.298
310.702
307.808
311.612
310.851
313.608
310.594
314.235
307.313
)
