
111
(
-40.6084
-24.4065
-25.9563
-25.5903
-30.1997
-27.7394
-32.123
-24.6122
-25.4627
-28.7552
-25.9728
-17.4876
-14.1155
-28.3149
-34.9879
-35.3399
-16.186
-33.0959
-35.5397
-19.5236
-25.4303
-38.8954
-18.5067
-21.3033
-35.4502
-18.3309
-20.2853
-29.55
-18.9366
-22.9384
-38.3632
-15.5376
-25.5291
-14.4605
-16.4099
-16.2095
-21.9793
-18.2803
-25.6598
-16.9614
-17.3527
-15.834
-15.1506
-15.8051
-14.174
-16.6107
-19.6803
-19.8335
-32.194
-15.6553
-14.5408
-16.0315
-17.7265
-17.0873
-25.6435
-24.911
-20.4403
-15.9886
-26.2472
-33.0684
-29.1412
-22.5237
-14.2983
-31.9452
-19.1913
-30.5114
-15.656
-15.1327
-15.8667
-14.1825
-17.1286
-21.7814
-15.7332
-14.1827
-16.3203
-14.9637
-18.4762
-30.3427
-21.3207
-13.6514
-28.9226
-17.8489
-31.3867
-19.939
-18.131
-24.1146
-15.2106
-34.6693
-29.9658
-15.5006
-16.3535
-15.9113
-15.9704
-16.0432
-16.18
-17.1224
-15.8979
-16.4211
-18.501
-32.4532
-30.1217
-32.0212
-15.8485
-16.3246
-17.7256
-16.043
-16.7681
-19.6348
-31.2807
-32.5972
-31.1482
)
