
111
(
309.119
306.843
307.276
307.389
308.136
307.127
307.934
306.432
307.296
307.916
306.663
305.056
304.445
306.69
307.904
307.977
304.838
307.567
308.012
304.836
305.833
308.103
304.691
305.134
307.528
304.691
304.962
306.53
304.747
305.408
308.016
304.732
306.66
304.565
304.894
304.85
305.913
305.208
306.661
304.934
304.642
305.035
305.163
305.093
304.765
305.256
305.92
305.487
308.308
305.063
305.063
305.135
305.486
305.005
307.076
306.519
305.558
305.195
306.669
307.968
307.24
305.94
304.588
307.751
305.395
307.46
305.043
305.174
305.101
304.514
305.358
306.35
305.083
304.938
305.185
304.641
305.659
307.958
305.718
304.514
307.186
305.135
307.618
305.467
305.523
306.251
304.713
308.28
307.371
304.472
304.495
304.478
304.444
305.278
305.44
305.66
305.334
305.505
305.936
309.137
308.554
308.997
305.295
305.484
305.774
305.38
305.573
306.179
307.577
309.169
308.777
)
