# Source : cellZone face_T
# Cells  : 209
# Time	sum(V)	volAverage(T)	volAverage(X)	volAverage(p)	volAverage(Qr)
120	0.00323678	301.306	0.0106935	100039	0
