
1600
(
1.36519
1.45195
1.53255
1.61373
1.69521
1.77347
1.84564
1.90784
1.95674
1.98918
2.00165
1.9918
1.95703
1.89684
1.812
1.70512
1.57914
1.57326
2.49126
2.58495
3.52256
2.61231
2.61157
2.6863
2.89652
2.73996
2.685
3.39809
3.33241
3.11204
3.22122
4.26945
4.25702
3.70751
2.72299
2.77163
2.35559
0.75746
0.771839
0.860824
1.31643
1.40929
1.48732
1.56714
1.65039
1.73284
1.81145
1.8814
1.93931
1.98202
2.00575
2.00841
1.98705
1.94056
1.86918
1.77479
1.66019
1.65274
2.49441
2.57739
3.48497
2.59074
2.57922
2.64024
2.83451
2.67521
2.61822
3.32438
3.23597
3.01834
3.12798
4.14139
4.12357
3.60134
2.65148
2.70972
2.30043
0.801488
0.817727
0.901309
1.23186
1.33287
1.4128
1.49304
1.5775
1.66265
1.74517
1.82032
1.88453
1.9349
1.96806
1.98186
1.97345
1.94149
1.88541
1.80664
1.70704
1.70049
2.45545
2.52834
3.37916
2.52796
2.50633
2.55125
2.72257
2.5637
2.50515
3.18427
3.07561
2.86609
2.97206
3.91997
3.89524
3.41309
2.52336
2.5886
2.1971
0.826234
0.841791
0.916995
1.13448
1.23888
1.31994
1.40019
1.48461
1.57033
1.65411
1.73127
1.79866
1.85396
1.89396
1.91725
1.9207
1.90295
1.86298
1.80132
1.71913
1.71534
2.37679
2.44008
3.21013
2.42713
2.39644
2.42426
2.56691
2.41157
2.35195
2.98436
2.85994
2.66359
2.76162
3.61676
3.58477
3.15328
2.34626
2.41517
2.05151
0.831622
0.844616
0.909508
1.03843
1.14215
1.22182
1.30037
1.38249
1.46587
1.54745
1.62351
1.69099
1.74805
1.79229
1.82269
1.83601
1.83103
1.80637
1.76187
1.69799
1.69803
2.26351
2.31768
2.98759
2.29335
2.25559
2.26619
2.37667
2.22834
2.16867
2.73773
2.60442
2.42583
2.5117
3.25284
3.21397
2.83953
2.13185
2.20023
1.87322
0.819384
0.828322
0.881053
0.954234
1.05465
1.13034
1.20424
1.28109
1.35874
1.43498
1.50648
1.57091
1.62717
1.67302
1.7081
1.72887
1.73445
1.72336
1.69471
1.64848
1.65256
2.12306
2.1688
2.72714
2.13642
2.09474
2.0907
2.1688
2.03077
1.97206
2.46457
2.32925
2.1713
2.24151
2.85538
2.81038
2.49548
1.89651
1.95955
1.67529
0.793186
0.796292
0.835485
0.889151
0.985202
1.05451
1.12085
1.18937
1.25864
1.32708
1.39188
1.45139
1.50471
1.55002
1.58741
1.61328
1.62704
1.62707
1.61232
1.58241
1.59056
1.97129
2.01001
2.45379
1.97495
1.93495
1.92251
1.97315
1.85104
1.79692
2.20693
2.07774
1.94152
1.99193
2.47102
2.41842
2.15827
1.66652
1.7169
1.47584
0.760131
0.755022
0.779595
0.851018
0.942204
1.00287
1.05878
1.11654
1.17578
1.23529
1.29266
1.34649
1.39596
1.43977
1.47825
1.50772
1.52829
1.53847
1.53737
1.52411
1.53855
1.84066
1.87468
2.21209
1.84303
1.80353
1.78141
1.80391
1.695
1.64323
1.96755
1.85179
1.74204
1.78123
2.14288
2.08971
1.87549
1.47853
1.50456
1.29855
0.731105
0.713033
0.720475
0.841244
0.926262
0.975557
1.02098
1.0686
1.11812
1.16898
1.21909
1.26707
1.31219
1.35326
1.39094
1.42106
1.44402
1.45828
1.46253
1.45648
1.46905
1.69509
1.72014
1.956
1.68439
1.64808
1.62116
1.62243
1.52834
1.47946
1.72117
1.62152
1.53354
1.55772
1.81326
1.77308
1.62585
1.32858
1.33286
1.15643
0.713644
0.677929
0.665917
0.834436
0.904324
0.94337
0.978316
1.01622
1.05715
1.10022
1.14357
1.18565
1.22588
1.26329
1.29904
1.32834
1.35238
1.37
1.3802
1.38222
1.3958
1.56089
1.58013
1.73449
1.54531
1.51335
1.48427
1.47005
1.3897
1.34348
1.51068
1.42832
1.35868
1.36932
1.5354
1.50155
1.39806
1.20167
1.19876
1.05176
0.710195
0.654531
0.62147
0.831395
0.898005
0.931054
0.958119
0.987651
1.02032
1.05577
1.09236
1.12869
1.16427
1.19818
1.23218
1.26025
1.28454
1.30412
1.31796
1.3253
1.33887
1.45446
1.4684
1.56035
1.43593
1.40737
1.3783
1.35393
1.28568
1.24184
1.34634
1.28054
1.22577
1.22589
1.32378
1.29651
1.22657
1.09884
1.10739
0.987763
0.722453
0.645765
0.591419
0.84246
0.90956
0.940478
0.963055
0.986289
1.01178
1.04011
1.07008
1.1006
1.13122
1.16135
1.19325
1.21947
1.243
1.26298
1.27855
1.28886
1.30139
1.37858
1.38787
1.43613
1.35858
1.33322
1.30484
1.27499
1.21683
1.175
1.23039
1.17916
1.13585
1.12885
1.17916
1.15829
1.1133
1.03608
1.04472
0.958702
0.750039
0.652726
0.577607
0.865123
0.933596
0.96521
0.98647
1.00606
1.0262
1.04844
1.07217
1.09694
1.12254
1.14872
1.17836
1.20222
1.22419
1.24376
1.25966
1.27138
1.28259
1.33186
1.33742
1.35792
1.31131
1.28898
1.26143
1.22971
1.17986
1.1401
1.16019
1.12051
1.08552
1.07459
1.09501
1.07965
1.0525
1.00996
1.0152
0.97069
0.795482
0.675237
0.578974
0.896651
0.9664
0.99997
1.02207
1.04034
1.05714
1.07462
1.09283
1.11214
1.13287
1.15489
1.18222
1.20343
1.22362
1.24217
1.2576
1.26949
1.27944
1.30925
1.312
1.31691
1.2888
1.26886
1.24293
1.21143
1.16853
1.13145
1.1288
1.09765
1.06809
1.05594
1.05992
1.04901
1.03396
1.01263
1.01264
0.986094
0.850157
0.710983
0.593861
0.933951
1.00479
1.04051
1.06452
1.0831
1.09822
1.11239
1.12619
1.14059
1.15658
1.17437
1.19965
1.21783
1.23582
1.25268
1.26695
1.27825
1.2868
1.30388
1.30461
1.30208
1.28391
1.26594
1.24229
1.21221
1.17535
1.14162
1.12652
1.10157
1.07552
1.06386
1.06051
1.05323
1.04558
1.0347
1.02723
1.00279
0.907086
0.756626
0.619092
0.975614
1.0464
1.08387
1.10995
1.12947
1.14408
1.1561
1.16643
1.17681
1.18849
1.2023
1.22563
1.24064
1.25575
1.27027
1.2828
1.29283
1.29971
1.30888
1.30814
1.30282
1.28951
1.27337
1.25217
1.2249
1.19294
1.16343
1.14352
1.12327
1.09922
1.0893
1.08403
1.07953
1.07564
1.06645
1.04945
1.02235
0.959568
0.807423
0.650619
1.01874
1.08913
1.12799
1.15565
1.17609
1.1906
1.20131
1.20914
1.21626
1.22421
1.23447
1.2561
1.26755
1.2795
1.2912
1.3013
1.30921
1.3143
1.31872
1.31694
1.31083
1.2998
1.28543
1.26687
1.24331
1.21565
1.19101
1.17131
1.15496
1.13208
1.12459
1.1201
1.1176
1.11383
1.09974
1.07213
1.04106
0.9992
0.857908
0.684419
1.06217
1.13166
1.17107
1.19959
1.22063
1.23509
1.24486
1.2509
1.25562
1.26048
1.2677
1.28813
1.2958
1.30421
1.31268
1.31979
1.32516
1.32818
1.32969
1.32687
1.32066
1.31089
1.2982
1.28235
1.26274
1.23965
1.21994
1.20335
1.19081
1.16867
1.16384
1.16112
1.15936
1.15214
1.12906
1.09137
1.05699
1.02436
0.90285
0.718365
1.10385
1.17266
1.21218
1.24089
1.26188
1.27584
1.28484
1.28948
1.29248
1.29495
1.29983
1.31967
1.32367
1.32835
1.33325
1.33705
1.33927
1.33992
1.33978
1.33605
1.32976
1.32081
1.30989
1.29673
1.28114
1.263
1.24731
1.23621
1.22748
1.20573
1.20359
1.20257
1.19944
1.18541
1.15186
1.10597
1.06962
1.04145
0.938772
0.748526
1.14367
1.21157
1.25074
1.27884
1.29905
1.31214
1.32029
1.32392
1.32564
1.32646
1.32957
1.3495
1.35023
1.35123
1.35248
1.35269
1.35154
1.34971
1.34909
1.34458
1.33813
1.3296
1.32036
1.30979
1.29815
1.28487
1.27352
1.26919
1.26417
1.24243
1.24267
1.24251
1.23542
1.21243
1.16915
1.11751
1.0802
1.0574
0.966227
0.77435
1.17978
1.24767
1.28615
1.31325
1.33222
1.34422
1.3515
1.35433
1.35533
1.35504
1.35685
1.37772
1.37539
1.37305
1.37079
1.36739
1.36276
1.35844
1.35963
1.35452
1.34854
1.33909
1.33132
1.32313
1.31541
1.30673
1.30005
1.30427
1.30271
1.28036
1.28204
1.28215
1.26853
1.23591
1.18414
1.12946
1.09103
1.07819
0.987026
0.794373
1.21284
1.28145
1.31919
1.34493
1.36234
1.37331
1.37987
1.38241
1.38294
1.38196
1.38299
1.40535
1.40055
1.39525
1.38985
1.38312
1.37503
1.36871
1.37506
1.36986
1.36576
1.35311
1.34625
1.34028
1.3365
1.33204
1.33097
1.34606
1.34781
1.32351
1.32523
1.32621
1.30449
1.26238
1.20222
1.14749
1.10546
1.09662
1.00255
0.811239
1.24383
1.31376
1.35072
1.37507
1.39128
1.40151
1.40789
1.41059
1.41121
1.41011
1.41084
1.43522
1.42853
1.42079
1.41267
1.40284
1.39141
1.38366
1.40067
1.3962
1.39764
1.37685
1.37023
1.3661
1.36665
1.36601
1.37109
1.40301
1.40608
1.3776
1.37786
1.384
1.35382
1.30115
1.23081
1.17964
1.12425
1.06964
1.01168
0.828306
1.27362
1.34617
1.38283
1.40638
1.42204
1.43235
1.43936
1.44276
1.44403
1.4432
1.44423
1.47127
1.46338
1.45377
1.44341
1.43086
1.41622
1.40757
1.44262
1.44018
1.45342
1.41693
1.40959
1.40662
1.41246
1.41512
1.42705
1.48532
1.4856
1.45013
1.44822
1.46877
1.42991
1.36349
1.28055
1.23346
1.15823
1.05129
1.01146
0.84942
1.30376
1.38055
1.41781
1.44164
1.45809
1.46995
1.47856
1.4835
1.48609
1.48628
1.48817
1.51841
1.50983
1.49899
1.48679
1.47172
1.45369
1.44494
1.50735
1.50822
1.54305
1.47996
1.47059
1.46804
1.48084
1.48613
1.50599
1.60307
1.59419
1.54902
1.54565
1.59568
1.54759
1.46228
1.35955
1.32009
1.22137
1.05573
1.00297
0.876669
1.33774
1.41987
1.45883
1.4846
1.5037
1.51848
1.52992
1.53739
1.54215
1.54416
1.54742
1.5813
1.57269
1.56107
1.5473
1.52947
1.50748
1.49914
1.59996
1.6055
1.67445
1.5708
1.5582
1.55536
1.57759
1.58486
1.61389
1.7638
1.74043
1.68096
1.67893
1.77844
1.72004
1.60723
1.47551
1.44681
1.31863
1.08023
1.00622
0.912212
1.3776
1.4662
1.50875
1.53866
1.56232
1.58179
1.59729
1.60839
1.6162
1.62059
1.6261
1.66358
1.65527
1.643
1.62743
1.60636
1.57922
1.57145
1.72283
1.73413
1.85162
1.69186
1.67464
1.67108
1.70589
1.71428
1.75396
1.9705
1.93057
1.85002
1.85435
2.026
1.95604
1.80414
1.63273
1.61551
1.44939
1.12753
1.06509
0.991558
1.423
1.52114
1.56955
1.60616
1.63679
1.66256
1.68335
1.69892
1.71034
1.71759
1.72573
1.7666
1.75862
1.74542
1.72719
1.7016
1.66766
1.66025
1.87436
1.89191
2.07227
1.84143
1.81855
1.81419
1.8652
1.87357
1.92535
2.22131
2.16362
2.05872
2.07345
2.33983
2.25713
2.05348
1.8314
1.82298
1.60325
1.16949
1.11898
1.07155
1.47235
1.58464
1.64228
1.68796
1.72755
1.76109
1.78788
1.80838
1.82378
1.83424
1.84501
1.88835
1.88038
1.86526
1.84309
1.81121
1.76806
1.76027
2.04832
2.0724
2.3277
2.01374
1.98481
1.97996
2.05064
2.05775
2.12305
2.50802
2.43355
2.30282
2.33234
2.71238
2.61667
2.34935
2.06661
2.06347
1.77738
1.20414
1.15892
1.12014
1.51527
1.65429
1.73015
1.78596
1.83407
1.87533
1.90812
1.93344
1.95256
1.96594
1.97901
2.02336
2.01417
1.99573
1.96773
1.92721
1.87233
1.86301
2.23464
2.26535
2.60359
2.19925
2.16495
2.16043
2.25365
2.25833
2.33814
2.81718
2.73005
2.57268
2.62007
3.12709
3.01913
2.67821
2.32749
2.32561
1.96575
1.23307
1.19342
1.16726
1.56709
1.73721
1.82978
1.89621
1.95298
2.00094
2.03871
2.06777
2.08975
2.10523
2.1196
2.16285
2.15079
2.12711
2.09069
2.03895
1.96983
1.95801
2.42048
2.45779
2.8814
2.38633
2.34807
2.34528
2.46253
2.46393
2.55847
3.13088
3.03796
2.85432
2.9208
3.55922
3.44066
3.0203
2.59825
2.5933
2.15784
1.25313
1.21879
1.20735
1.63635
1.8277
1.93714
2.0123
2.07542
2.12842
2.17027
2.20246
2.22668
2.24337
2.25775
2.29728
2.28007
2.24831
2.20084
2.13514
2.0497
2.03447
2.59198
2.63606
3.14135
2.56272
2.52252
2.52297
2.66446
2.66162
2.77035
3.42941
3.33896
3.13073
3.21569
3.98047
3.85344
3.35236
2.85938
2.84802
2.34166
1.26132
1.23162
1.2345
1.71502
1.92961
2.04599
2.12581
2.19157
2.24626
2.28963
2.32313
2.34821
2.36521
2.37869
2.41213
2.3883
2.34692
2.28665
2.20559
2.10263
2.08376
2.73671
2.78793
3.36535
2.71663
2.67707
2.68212
2.84618
2.83854
2.95982
3.69274
3.61302
3.38346
3.48511
4.3618
4.22875
3.6511
3.09199
3.07134
2.50429
1.25484
1.22839
1.24427
1.79711
2.0309
2.14743
2.22668
2.29082
2.34413
2.38696
2.42048
2.44534
2.46132
2.47206
2.49624
2.46401
2.41138
2.33736
2.24084
2.12139
2.10009
2.84563
2.90497
3.5396
2.83929
2.80272
2.81334
2.99609
2.98306
3.11426
3.90317
3.84143
3.59557
3.71082
4.67692
4.54025
3.89534
3.27965
3.24766
2.63416
1.23164
1.20715
1.23384
1.87598
2.1185
2.23046
2.30437
2.3632
2.4126
2.45342
2.48592
2.50936
2.52284
2.52868
2.54075
2.49854
2.43383
2.34621
2.23533
2.10182
2.08021
2.91191
2.98098
3.65542
2.92567
2.89403
2.90988
3.10576
3.08648
3.22346
4.04702
4.00793
3.75201
3.87711
4.90422
4.7662
4.0684
3.40942
3.3656
2.72259
1.19091
1.16723
1.20243
1.94356
2.18453
2.28609
2.35045
2.40137
2.44554
2.48326
2.5135
2.53428
2.54347
2.54232
2.54011
2.48725
2.41075
2.31116
2.18925
2.04606
2.027
2.93412
3.01367
3.70784
2.97087
2.94531
2.96579
3.16822
3.14181
3.27989
4.11507
4.10086
3.84216
3.9726
5.02966
4.89234
4.15932
3.47303
3.4184
2.76361
1.13332
1.10912
1.15056
1.99319
2.22113
2.3065
2.3586
2.40124
2.44007
2.47429
2.5014
2.518
2.52145
2.51162
2.49389
2.43082
2.34389
2.23465
2.10481
1.9567
1.94446
2.9153
3.00798
3.70302
2.9794
2.95892
2.98096
3.18126
3.14645
3.27981
4.10298
4.11325
3.85922
3.99095
5.04697
4.91243
4.16357
3.46772
3.40418
2.75476
1.06043
1.0344
1.07996
2.00676
2.21811
2.28562
2.32644
2.3632
2.39836
2.42948
2.45271
2.46412
2.46071
2.44137
2.40812
2.33638
2.24135
2.12554
1.9916
1.84269
1.83783
2.85303
2.95709
3.63485
2.94471
2.93037
2.95305
3.14336
3.09889
3.22218
4.01199
4.04349
3.80136
3.93064
4.95764
4.828
4.08301
3.39494
3.32496
2.69629
0.973999
0.945404
0.993368
2.00667
2.16331
2.21627
2.255
2.29306
2.32871
2.35823
2.37792
2.38377
2.37306
2.34401
2.29664
2.21787
2.11701
1.99724
1.86199
1.71508
1.71663
2.75421
2.86487
3.50559
2.85893
2.84673
2.86729
3.04447
2.99338
3.10388
3.84459
3.89505
3.67137
3.79546
4.77006
4.64726
3.92456
3.26003
3.18615
2.59063
0.875603
0.844537
0.89416
1.95553
2.03825
2.09859
2.15507
2.20496
2.24554
2.27533
2.29186
2.29171
2.27299
2.234
2.17399
2.08855
1.9826
1.85989
1.7245
1.58058
1.58554
2.62176
2.73333
3.32157
2.72611
2.7137
2.72996
2.88879
2.83359
2.93231
3.61195
3.67498
3.47167
3.58947
4.49534
4.38206
3.6974
3.06992
2.99468
2.44138
0.766207
0.732951
0.785032
)
