
20
(
-68.3185
-47.43
-37.5776
-54.349
-39.8717
-77.9916
-47.168
-78.6052
-52.3683
-26.8638
-57.9307
-42.2187
-64.3327
-43.3801
-39.7806
-41.287
-44.5192
-19.8778
-36.9243
-26.6273
)
