
20
(
316.639
310.185
310.264
313.762
310.683
318.337
311.847
316.01
312.875
306.918
314.047
310.351
316.195
309.98
309.99
309.663
311.148
306.499
309.103
307.665
)
