
59
(
-9.10148
-11.14
0.252462
0.191257
-10.1811
-6.66402
-11.7544
1.40627
-7.75727
-8.68765
-10.9646
-10.4889
-1.17494
-2.87121
-3.00171
-10.6241
-10.4135
-12.0298
-10.1883
-8.72181
-10.9228
-11.1456
-10.7967
-3.27811
-2.17954
-1.72531
-1.48389
0.320014
0.702118
5.85182
-2.34467
2.06931
-7.55801
1.05221
-6.90213
-11.3178
-0.97132
-5.79643
-2.76945
-8.5973
3.20095
-5.58887
-7.66585
-2.67305
-3.03921
-1.92973
-1.14767
-8.61165
-7.72801
-9.01183
-4.70881
2.28899
-5.61328
1.49977
-2.39269
-5.0769
-10.7015
1.30845
-8.73317
)
