
59
(
305.348
305.856
303.272
304.609
304.948
305.798
305.295
303.153
305.038
304.965
305.1
305.006
304.443
303.883
304.211
305.05
304.994
305.335
305.336
304.943
305.126
305.147
305.049
304.992
303.627
304.245
305.025
303.524
303.057
303.386
303.6
303.151
304.857
303.16
305.721
305.77
303.548
304.308
303.686
304.839
303.445
304.356
304.701
303.674
304.143
305.092
303.576
304.892
304.794
304.908
304.187
303.938
304.725
302.874
305.135
304.181
305.898
303.398
304.98
)
