
1600
(
2.0377
2.07549
2.11329
2.15141
2.18989
2.23024
2.27147
2.31504
2.35956
2.40369
2.44608
2.48611
2.52176
2.55328
2.57936
2.60726
2.63061
2.64999
2.67014
2.68428
2.70648
2.70624
2.71508
2.72248
2.72734
2.73158
2.74265
2.76264
2.76591
2.77192
2.7853
2.80904
2.83874
2.86449
2.90334
2.96435
3.03546
3.13009
3.29052
3.58114
1.95768
1.99058
2.02694
2.06248
2.0998
2.13913
2.17964
2.2212
2.26298
2.30402
2.34309
2.38022
2.41437
2.4454
2.47253
2.51039
2.54849
2.57935
2.61399
2.63897
2.67582
2.678
2.69371
2.70727
2.7169
2.72472
2.74159
2.77262
2.77616
2.78106
2.79557
2.82373
2.85715
2.87921
2.91522
2.97858
3.04587
3.13146
3.286
3.59353
1.92344
1.95235
1.98765
2.02474
2.0647
2.10693
2.15014
2.19336
2.23607
2.27765
2.31703
2.35454
2.38977
2.42261
2.45296
2.49493
2.54076
2.58009
2.62868
2.66212
2.71411
2.71293
2.7326
2.74942
2.76047
2.76809
2.78905
2.83217
2.83164
2.83124
2.8437
2.87487
2.91034
2.92388
2.95306
3.01811
3.07908
3.15263
3.30107
3.60164
1.9162
1.94035
1.97443
2.01358
2.05641
2.10153
2.14712
2.19216
2.2364
2.27914
2.32007
2.35944
2.39683
2.43265
2.46735
2.51351
2.56672
2.6157
2.68314
2.72633
2.79873
2.79045
2.81465
2.83498
2.84665
2.85281
2.87875
2.93838
2.93106
2.92188
2.93034
2.96465
3.00199
3.00217
3.02032
3.08745
3.13949
3.19589
3.3379
3.62212
1.94187
1.95697
1.98806
2.02696
2.07017
2.11571
2.16144
2.20666
2.25138
2.2954
2.33838
2.38049
2.42138
2.46132
2.5011
2.55233
2.61367
2.67323
2.76741
2.82306
2.92373
2.90491
2.93553
2.96118
2.97404
2.97829
3.01135
3.09453
3.07789
3.05606
3.05853
3.09732
3.13677
3.1178
3.11975
3.19002
3.22963
3.26009
3.39444
3.65797
2.03018
2.02888
2.04599
2.07656
2.11561
2.15769
2.20055
2.24383
2.28766
2.33208
2.37701
2.42255
2.46718
2.512
2.55748
2.61359
2.68343
2.75437
2.88663
2.95789
3.09668
3.06347
3.10393
3.1381
3.15356
3.15587
3.19922
3.31462
3.28591
3.24685
3.24128
3.28622
3.32837
3.28299
3.2617
3.33608
3.35821
3.34899
3.47224
3.71434
2.19232
2.16511
2.16498
2.18009
2.201
2.23406
2.27088
2.31046
2.35268
2.39769
2.44487
2.49406
2.54296
2.59243
2.64338
2.70371
2.781
2.86499
3.05286
3.144
3.3333
3.28306
3.33864
3.38615
3.40687
3.40774
3.46482
3.62174
3.57825
3.51676
3.50089
3.55392
3.59859
3.51801
3.46394
3.54211
3.53917
3.46857
3.57486
3.79586
2.41442
2.3594
2.33564
2.33195
2.33756
2.34998
2.37574
2.40989
2.45051
2.4971
2.54817
2.60315
2.6582
2.71367
2.76967
2.8326
2.91599
3.01448
3.28473
3.40306
3.65636
3.58982
3.66786
3.73544
3.76516
3.76599
3.83985
4.04565
3.98566
3.89705
3.86884
3.93109
3.97681
3.85142
3.75248
3.82997
3.79012
3.62484
3.71019
3.90941
2.66499
2.58044
2.53397
2.51114
2.50178
2.5038
2.51407
2.53981
2.57844
2.62755
2.68503
2.7497
2.81528
2.88073
2.94453
3.01055
3.09856
3.21518
3.60786
3.76377
4.0916
4.0154
4.12435
4.21924
4.26303
4.26635
4.35829
4.61409
4.53837
4.42097
4.37992
4.45111
4.49419
4.31658
4.16022
4.22605
4.13306
3.82792
3.88518
4.06122
3.03659
2.84735
2.75249
2.70178
2.67736
2.67152
2.67898
2.69596
2.72933
2.78049
2.84569
2.92349
3.00504
3.08753
3.16635
3.24192
3.33745
3.47796
4.04709
4.25794
4.66382
4.59613
4.74344
4.87149
4.93488
4.94519
5.05325
5.34753
5.26258
5.12233
5.07069
5.14646
5.17983
4.95041
4.72792
4.75996
4.58969
4.0829
4.10202
4.25264
3.2072
3.02388
2.92222
2.86074
2.82754
2.81753
2.82582
2.8481
2.88115
2.93256
3.00516
3.09755
3.19938
3.30682
3.41108
3.50754
3.62575
3.80723
4.63076
4.92593
5.39439
5.36525
5.5492
5.70792
5.79339
5.81622
5.93174
6.2317
6.15213
6.0077
5.95205
6.02115
6.03486
5.77092
5.48834
5.45121
5.16987
4.38444
4.35466
4.47775
3.32472
3.16026
3.06606
3.00198
2.959
2.93703
2.9357
2.95322
2.98759
3.04109
3.11928
3.22433
3.34659
3.48354
3.62362
3.75603
3.91677
4.19515
5.37075
5.79598
6.27756
6.32787
6.5287
6.69787
6.79784
6.83687
6.94081
7.18494
7.13287
7.01947
6.97242
7.01577
6.99949
6.74683
6.44103
6.29254
5.8564
4.70877
4.62236
4.71646
3.39943
3.25339
3.17712
3.12462
3.08329
3.05346
3.03708
3.03623
3.05293
3.09337
3.16594
3.27603
3.41174
3.57347
3.74919
3.92507
4.13043
4.57897
6.23685
6.84572
7.2434
7.41632
7.59071
7.7235
7.81125
7.86162
7.92134
8.0184
8.01265
7.97423
7.94895
7.93996
7.88698
7.71944
7.46717
7.18085
6.56407
5.0061
4.86053
4.92496
3.43805
3.30408
3.24612
3.21452
3.19226
3.17578
3.16414
3.15854
3.16273
3.18259
3.23597
3.33594
3.4765
3.65996
3.87802
4.11946
4.40385
5.06311
7.69674
8.55352
8.92959
9.17312
9.33168
9.43872
9.51272
9.56401
9.59877
9.6205
9.63083
9.62924
9.61333
9.57699
9.5077
9.38238
9.16054
8.78344
7.90784
5.43516
5.17171
5.15164
3.45022
3.31867
3.27034
3.25554
3.25546
3.26483
3.28095
3.30125
3.32556
3.35466
3.39643
3.47991
3.6111
3.81655
4.08951
4.43032
4.85401
5.71129
8.95897
10.003
10.4612
10.7445
10.9236
11.0382
11.1153
11.1675
11.202
11.223
11.2316
11.2275
11.2075
11.164
11.0819
10.9322
10.6616
10.188
9.10612
5.98363
5.54219
5.37715
3.44708
3.31029
3.26169
3.2522
3.26289
3.28918
3.32932
3.38232
3.44821
3.52689
3.61849
3.72814
3.85699
4.05375
4.36692
4.78332
5.29245
6.22457
9.77686
10.9146
11.4319
11.7507
11.9487
12.0725
12.1524
12.2048
12.2383
12.2572
12.263
12.2546
12.2283
12.1753
12.0773
11.9
11.5826
11.0371
9.84471
6.36508
5.76716
5.47688
3.44101
3.29524
3.23978
3.22618
3.23542
3.26316
3.30847
3.37208
3.45715
3.56803
3.7106
3.89623
4.10517
4.34566
4.64538
5.07238
5.60415
6.56428
10.2623
11.4355
11.9796
12.3162
12.5234
12.6507
12.7296
12.7795
12.81
12.8255
12.8278
12.8149
12.7832
12.7222
12.612
12.4149
12.0673
11.4816
10.2392
6.54486
5.8024
5.43605
3.44336
3.28891
3.22519
3.20416
3.20628
3.22699
3.26502
3.32173
3.40175
3.51274
3.66621
3.88341
4.15113
4.48737
4.87429
5.30649
5.83115
6.788
10.5382
11.7171
12.2649
12.6032
12.8096
12.9338
13.0086
13.053
13.0784
13.0893
13.0875
13.0699
13.0339
12.9677
12.8501
12.6423
12.2797
11.6754
10.4127
6.60896
5.76388
5.36542
3.45984
3.29992
3.23005
3.20271
3.19779
3.20971
3.23644
3.27852
3.34027
3.43039
3.56425
3.77069
4.04401
4.42268
4.91315
5.47552
6.02431
6.9499
10.6731
11.8424
12.3746
12.6953
12.8894
13.0055
13.0736
13.1098
13.1283
13.1336
13.1274
13.1049
13.066
12.9973
12.8773
12.6673
12.3026
11.6949
10.4279
6.62776
5.78289
5.37725
3.49119
3.32859
3.25542
3.22442
3.21481
3.22008
3.23714
3.26509
3.30778
3.37365
3.47609
3.64524
3.8718
4.2103
4.68981
5.31921
6.04679
7.05894
10.6843
11.8294
12.3291
12.6113
12.7641
12.8644
12.922
12.949
12.9592
12.9584
12.9474
12.9195
12.8789
12.8104
12.6932
12.4896
12.1354
11.5393
10.2842
6.60471
5.87296
5.48526
3.53107
3.36744
3.2923
3.25907
3.24644
3.2474
3.25784
3.27628
3.30698
3.35616
3.43519
3.57183
3.74373
3.99968
4.36579
4.85857
5.44844
6.42195
10.077
11.4016
12.0475
12.3015
12.3829
12.4395
12.469
12.483
12.4851
12.4777
12.4622
12.4271
12.386
12.3203
12.2109
12.0227
11.6941
11.1316
9.91849
6.47398
5.91043
5.58593
3.57102
3.40584
3.32791
3.29159
3.27526
3.27172
3.27669
3.28833
3.31195
3.35245
3.42024
3.54186
3.68094
3.877
4.13838
4.46597
4.84517
5.51269
8.64644
9.76654
10.4624
11.4187
11.5689
11.5878
11.5791
11.5655
11.5522
11.535
11.5132
11.4668
11.4255
11.3643
11.2661
11.1006
10.8136
10.3157
9.20914
6.14863
5.76012
5.54973
3.60365
3.43566
3.35361
3.31288
3.29205
3.28375
3.28356
3.29037
3.3098
3.34615
3.40901
3.52422
3.64321
3.79901
3.98653
4.19299
4.39824
4.81943
7.21716
8.02119
8.38766
8.72465
9.68602
10.0255
10.1069
10.1019
10.0772
10.0493
10.0201
9.95732
9.91468
9.85742
9.77004
9.6279
9.38827
8.97939
8.07559
5.69176
5.44715
5.36501
3.62526
3.45318
3.36575
3.32004
3.29473
3.28217
3.27823
3.28252
3.30025
3.33508
3.39514
3.50574
3.60754
3.73066
3.86369
3.98889
4.08612
4.34791
5.81843
6.36126
6.66857
6.78546
7.11117
7.66594
8.16631
8.39853
8.49203
8.5679
8.5346
8.40873
8.35073
8.31786
8.23635
8.03571
7.76011
7.44335
6.78096
5.33473
5.16526
5.15071
3.63542
3.45854
3.36519
3.3141
3.28407
3.26736
3.25988
3.26177
3.27743
3.30925
3.36412
3.46688
3.54926
3.6419
3.73359
3.80937
3.85401
3.99347
5.0196
5.37919
5.73098
5.73956
5.87874
6.25004
6.76774
7.14451
7.44434
7.76368
7.73549
7.52025
7.43964
7.46148
7.40875
7.10463
6.77589
6.6032
6.09322
5.05426
4.94863
4.9439
3.6376
3.45582
3.35585
3.29869
3.26315
3.24111
3.2283
3.22488
3.23441
3.25761
3.29972
3.38601
3.44038
3.49575
3.54295
3.57217
3.57651
3.64279
4.32373
4.54963
4.88003
4.82391
4.91066
5.13423
5.54055
5.91009
6.32419
6.80964
6.81615
6.57623
6.48977
6.53993
6.51755
6.19598
5.89139
5.83186
5.46219
4.76246
4.70477
4.70587
3.6399
3.45199
3.34399
3.27969
3.23761
3.20898
3.18883
3.17779
3.17786
3.18864
3.21418
3.28087
3.30686
3.32876
3.34086
3.33867
3.32134
3.34694
3.7806
3.91422
4.18297
4.08647
4.15296
4.2764
4.58286
4.91301
5.35427
5.91058
5.96954
5.75659
5.67901
5.73484
5.73242
5.44468
5.19783
5.20342
4.94533
4.50212
4.48003
4.48347
3.6499
3.45367
3.33566
3.26265
3.21253
3.17596
3.14701
3.12654
3.11553
3.11254
3.12121
3.16965
3.17232
3.16988
3.15964
3.14083
3.11525
3.11928
3.38551
3.45985
3.66082
3.55439
3.5942
3.65605
3.88889
4.19682
4.62404
5.17938
5.28688
5.12305
5.06135
5.11016
5.11706
4.8826
4.69687
4.72883
4.55383
4.29232
4.29468
4.29903
3.67804
3.46804
3.33627
3.25222
3.19234
3.14616
3.10703
3.07617
3.05346
3.03722
3.03106
3.06481
3.05072
3.03271
3.01011
2.98399
2.95622
2.94829
3.10431
3.14089
3.28101
3.18134
3.20343
3.25002
3.44192
3.74652
4.14109
4.65319
4.79017
4.67259
4.62629
4.66355
4.67242
4.49198
4.35741
4.39223
4.27661
4.13638
4.15309
4.15684
3.73415
3.50235
3.35171
3.25412
3.18276
3.12626
3.07645
3.03374
2.99862
2.9692
2.94967
2.97106
2.94543
2.91816
2.88984
2.86147
2.83425
2.82031
2.90724
2.92241
3.01743
2.93834
2.95942
3.01165
3.15938
3.49628
3.87029
4.32261
4.46061
4.37181
4.33762
4.36357
4.37103
4.23718
4.14109
4.16834
4.09375
4.0289
4.05167
4.05454
3.81801
3.5529
3.37965
3.26725
3.18401
3.1157
3.056
3.00179
2.95587
2.91621
2.88685
2.89904
2.86597
2.83338
2.80218
2.77332
2.74714
2.73037
2.77565
2.78024
2.84539
2.79277
2.82312
2.89852
3.06195
3.38146
3.76229
4.13063
4.24909
4.18035
4.15659
4.17418
4.17949
4.08273
4.01375
4.03062
3.98346
3.96145
3.9843
3.98523
3.95921
3.62607
3.42172
3.29052
3.19116
3.11048
3.04117
2.97787
2.9221
2.8735
2.83625
2.84073
2.80309
2.7679
2.73605
2.70803
2.68378
2.66692
2.6891
2.69097
2.73992
2.71709
2.76634
2.86985
3.06243
3.37112
3.72201
4.02435
4.12148
4.06662
4.05177
4.0645
4.0684
3.99967
3.94933
3.95683
3.927
3.92571
3.94472
3.94346
4.17928
3.72477
3.48018
3.3232
3.20658
3.11266
3.03362
2.96379
2.90276
2.84751
2.80419
2.80131
2.76061
2.72382
2.69188
2.66493
2.64276
2.6279
2.6396
2.64505
2.6897
2.69745
2.7695
2.90017
3.11514
3.40961
3.71752
3.96304
4.048
4.00744
4.0012
4.01227
4.01584
3.96765
3.93017
3.93038
3.91036
3.91534
3.9281
3.925
4.44296
3.8422
3.54857
3.36384
3.2283
3.12023
3.03103
2.95405
2.88835
2.83106
2.78598
2.77843
2.73728
2.70092
2.67045
2.64594
2.62731
2.61693
2.62684
2.64031
2.68853
2.72557
2.82179
2.97677
3.20182
3.47392
3.73552
3.93491
4.01228
3.98827
3.99087
4.00285
4.00738
3.97431
3.94564
3.94046
3.92422
3.92634
3.93163
3.92703
4.67265
3.97476
3.62552
3.40977
3.25378
3.13158
3.03261
2.94961
2.88037
2.82146
2.77544
2.76362
2.72592
2.69443
2.66931
2.64992
2.63755
2.63506
2.65093
2.67801
2.73845
2.80573
2.92718
3.10029
3.3228
3.56265
3.77636
3.93778
4.01046
4.00217
4.01414
4.02928
4.03576
4.01345
3.99081
3.98099
3.96369
3.95776
3.95521
3.95081
4.79931
4.11114
3.70533
3.45753
3.2817
3.1468
3.04047
2.95353
2.88253
2.82362
2.77789
2.76174
2.72767
2.70133
2.68329
2.67425
2.67538
2.68959
2.72301
2.77253
2.85461
2.95376
3.09798
3.27927
3.48371
3.68112
3.84768
3.97531
4.04314
4.04876
4.07038
4.08969
4.09828
4.08341
4.06398
4.04931
4.02758
4.01155
4.0024
4.00066
4.80994
4.22191
3.77743
3.5025
3.31153
3.1685
3.0585
2.97073
2.90051
2.84355
2.80001
2.78095
2.75261
2.73393
2.72594
2.73002
2.74787
2.78269
2.83956
2.91862
3.02957
3.16015
3.32148
3.49919
3.6753
3.82917
3.95365
4.05206
4.11365
4.13459
4.16491
4.1877
4.19728
4.18619
4.16743
4.14784
4.12086
4.09649
4.08409
4.08999
4.72271
4.24156
3.81459
3.53587
3.34311
3.20134
3.09442
3.01096
2.9457
2.8948
2.85763
2.84059
2.82308
2.81772
2.82576
2.84882
2.88908
2.94911
3.03219
3.13765
3.2683
3.41176
3.56833
3.72394
3.86629
3.98697
4.08765
4.17345
4.23681
4.27228
4.30705
4.32961
4.33717
4.32677
4.30813
4.28641
4.2583
4.23279
4.22577
4.24993
4.57369
4.15217
3.79822
3.5571
3.38807
3.26491
3.17375
3.10513
3.05456
3.01936
2.99842
2.99456
2.99787
3.01524
3.04775
3.09639
3.16253
3.24685
3.34947
3.46756
3.5986
3.73164
3.86464
3.98994
4.10338
4.2034
4.29287
4.37355
4.43809
4.48126
4.51486
4.53478
4.5412
4.53406
4.52125
4.5066
4.48988
4.48048
4.50127
4.57631
4.35611
3.99217
3.75338
3.59364
3.48315
3.40639
3.35463
3.32261
3.30672
3.30604
3.3189
3.34539
3.38139
3.42891
3.48791
3.55717
3.63594
3.72264
3.81458
3.90885
4.0021
4.08884
4.16911
4.24126
4.30463
4.35836
4.40332
4.43941
4.46505
4.49206
4.52329
4.5535
4.58095
4.60338
4.62585
4.64948
4.6753
4.71244
4.78541
4.9244
)
