
1600
(
300.897
300.891
300.887
300.882
300.877
300.873
300.868
300.864
300.86
300.856
300.853
300.849
300.846
300.843
300.841
300.838
300.834
300.831
300.828
300.825
300.821
300.817
300.813
300.809
300.804
300.799
300.794
300.789
300.783
300.777
300.77
300.763
300.754
300.745
300.734
300.72
300.704
300.682
300.651
300.595
300.919
300.915
300.91
300.906
300.902
300.899
300.895
300.892
300.889
300.886
300.883
300.88
300.877
300.874
300.872
300.866
300.86
300.855
300.85
300.845
300.84
300.834
300.829
300.824
300.818
300.812
300.807
300.801
300.794
300.788
300.78
300.772
300.764
300.754
300.743
300.729
300.713
300.692
300.661
300.602
300.933
300.929
300.925
300.921
300.918
300.914
300.911
300.908
300.905
300.902
300.899
300.896
300.893
300.889
300.886
300.88
300.873
300.867
300.86
300.854
300.848
300.841
300.835
300.829
300.824
300.818
300.812
300.806
300.799
300.792
300.785
300.777
300.769
300.759
300.747
300.734
300.718
300.697
300.667
300.609
300.942
300.938
300.935
300.932
300.928
300.925
300.922
300.919
300.916
300.913
300.91
300.907
300.903
300.899
300.895
300.889
300.88
300.873
300.865
300.857
300.85
300.843
300.837
300.83
300.824
300.818
300.812
300.806
300.8
300.793
300.786
300.778
300.77
300.76
300.749
300.736
300.72
300.7
300.67
300.615
300.944
300.942
300.94
300.938
300.935
300.933
300.93
300.927
300.925
300.922
300.919
300.915
300.911
300.907
300.902
300.895
300.885
300.876
300.867
300.858
300.85
300.843
300.836
300.829
300.823
300.817
300.811
300.805
300.798
300.792
300.785
300.777
300.768
300.759
300.748
300.735
300.72
300.7
300.671
300.619
300.935
300.937
300.939
300.939
300.938
300.936
300.934
300.932
300.93
300.928
300.925
300.921
300.917
300.913
300.907
300.899
300.888
300.878
300.868
300.858
300.849
300.841
300.833
300.826
300.82
300.813
300.807
300.801
300.795
300.788
300.781
300.774
300.766
300.756
300.746
300.733
300.718
300.699
300.671
300.622
300.913
300.922
300.928
300.931
300.934
300.934
300.933
300.933
300.931
300.93
300.927
300.924
300.921
300.916
300.91
300.902
300.89
300.878
300.867
300.856
300.846
300.838
300.829
300.822
300.815
300.809
300.803
300.797
300.79
300.784
300.777
300.77
300.761
300.752
300.742
300.73
300.716
300.697
300.67
300.625
300.882
300.898
300.909
300.916
300.921
300.925
300.927
300.927
300.927
300.927
300.925
300.923
300.92
300.916
300.91
300.902
300.889
300.877
300.865
300.853
300.843
300.834
300.825
300.817
300.81
300.804
300.797
300.791
300.785
300.778
300.772
300.764
300.756
300.748
300.738
300.726
300.712
300.695
300.67
300.627
300.85
300.872
300.887
300.897
300.904
300.91
300.914
300.917
300.918
300.919
300.918
300.917
300.915
300.912
300.908
300.9
300.887
300.874
300.861
300.85
300.839
300.829
300.82
300.812
300.805
300.798
300.792
300.785
300.779
300.773
300.766
300.759
300.751
300.742
300.733
300.722
300.709
300.693
300.668
300.628
300.823
300.851
300.868
300.879
300.887
300.893
300.898
300.902
300.906
300.907
300.908
300.908
300.908
300.906
300.903
300.896
300.884
300.87
300.858
300.846
300.835
300.825
300.815
300.807
300.799
300.792
300.786
300.779
300.773
300.767
300.76
300.753
300.745
300.737
300.728
300.718
300.705
300.69
300.667
300.629
300.808
300.835
300.852
300.864
300.873
300.88
300.884
300.888
300.892
300.896
300.898
300.899
300.9
300.9
300.898
300.894
300.88
300.866
300.853
300.842
300.83
300.82
300.81
300.801
300.793
300.786
300.779
300.773
300.767
300.76
300.754
300.747
300.74
300.732
300.723
300.713
300.702
300.688
300.666
300.63
300.797
300.823
300.839
300.852
300.862
300.87
300.877
300.882
300.886
300.89
300.893
300.895
300.897
300.899
300.899
300.897
300.882
300.862
300.849
300.836
300.825
300.814
300.804
300.795
300.787
300.78
300.773
300.767
300.761
300.754
300.748
300.742
300.735
300.727
300.719
300.71
300.7
300.686
300.665
300.631
300.79
300.814
300.829
300.84
300.85
300.86
300.869
300.877
300.884
300.89
300.895
300.898
300.901
300.904
300.906
300.905
300.894
300.863
300.843
300.831
300.821
300.81
300.8
300.792
300.784
300.777
300.771
300.765
300.76
300.755
300.75
300.745
300.739
300.733
300.726
300.718
300.706
300.688
300.665
300.633
300.785
300.809
300.822
300.831
300.838
300.846
300.854
300.863
300.872
300.881
300.89
300.896
300.9
300.904
300.907
300.908
300.899
300.862
300.831
300.822
300.812
300.802
300.793
300.785
300.778
300.772
300.767
300.762
300.758
300.754
300.75
300.745
300.741
300.736
300.73
300.723
300.71
300.69
300.666
300.634
300.783
300.807
300.82
300.827
300.831
300.835
300.839
300.843
300.849
300.857
300.867
300.877
300.884
300.889
300.891
300.891
300.881
300.844
300.815
300.806
300.796
300.787
300.779
300.772
300.766
300.76
300.756
300.752
300.748
300.744
300.741
300.737
300.733
300.729
300.724
300.718
300.706
300.688
300.665
300.635
300.782
300.808
300.821
300.827
300.831
300.833
300.833
300.832
300.83
300.829
300.83
300.835
300.844
300.853
300.855
300.854
300.845
300.821
300.799
300.79
300.781
300.773
300.765
300.759
300.754
300.75
300.746
300.743
300.739
300.736
300.733
300.73
300.727
300.723
300.719
300.713
300.704
300.686
300.663
300.635
300.78
300.808
300.823
300.831
300.836
300.837
300.837
300.834
300.829
300.822
300.814
300.805
300.799
300.8
300.808
300.81
300.808
300.795
300.78
300.772
300.764
300.758
300.752
300.747
300.743
300.74
300.737
300.734
300.732
300.729
300.727
300.724
300.721
300.718
300.714
300.709
300.701
300.684
300.662
300.634
300.779
300.809
300.825
300.835
300.841
300.845
300.846
300.845
300.841
300.834
300.823
300.808
300.791
300.774
300.766
300.769
300.771
300.768
300.759
300.752
300.746
300.742
300.737
300.734
300.731
300.729
300.727
300.726
300.724
300.722
300.72
300.718
300.715
300.712
300.709
300.705
300.698
300.681
300.659
300.634
300.777
300.808
300.826
300.837
300.845
300.851
300.854
300.856
300.855
300.852
300.845
300.832
300.813
300.788
300.761
300.74
300.737
300.739
300.735
300.73
300.726
300.725
300.723
300.721
300.72
300.719
300.719
300.718
300.717
300.716
300.714
300.712
300.71
300.708
300.705
300.702
300.695
300.678
300.657
300.633
300.774
300.806
300.825
300.838
300.847
300.854
300.86
300.864
300.867
300.868
300.866
300.861
300.85
300.832
300.805
300.769
300.73
300.707
300.704
300.701
300.701
300.705
300.709
300.709
300.709
300.709
300.71
300.71
300.71
300.71
300.709
300.707
300.705
300.703
300.701
300.698
300.692
300.674
300.654
300.632
300.771
300.804
300.823
300.837
300.847
300.855
300.862
300.868
300.873
300.877
300.879
300.88
300.879
300.873
300.863
300.845
300.82
300.786
300.744
300.701
300.67
300.674
300.688
300.694
300.698
300.701
300.702
300.703
300.704
300.704
300.704
300.703
300.701
300.699
300.697
300.695
300.689
300.671
300.651
300.63
300.767
300.8
300.821
300.835
300.846
300.854
300.862
300.869
300.874
300.879
300.884
300.887
300.89
300.892
300.892
300.891
300.887
300.881
300.87
300.848
300.797
300.668
300.665
300.675
300.684
300.691
300.695
300.697
300.699
300.699
300.699
300.699
300.698
300.696
300.694
300.692
300.687
300.667
300.648
300.628
300.763
300.797
300.818
300.833
300.844
300.853
300.861
300.868
300.874
300.879
300.884
300.888
300.892
300.896
300.9
300.904
300.908
300.914
300.922
300.925
300.919
300.892
300.739
300.689
300.68
300.683
300.688
300.692
300.695
300.696
300.696
300.696
300.695
300.694
300.692
300.691
300.684
300.661
300.643
300.625
300.759
300.794
300.815
300.83
300.842
300.852
300.86
300.867
300.873
300.879
300.884
300.888
300.892
300.896
300.9
300.905
300.911
300.919
300.927
300.934
300.94
300.944
300.907
300.821
300.74
300.701
300.689
300.689
300.691
300.692
300.693
300.693
300.692
300.691
300.69
300.688
300.68
300.654
300.638
300.622
300.754
300.79
300.812
300.828
300.84
300.85
300.859
300.866
300.873
300.878
300.883
300.887
300.891
300.895
300.899
300.903
300.908
300.913
300.919
300.924
300.93
300.936
300.937
300.89
300.811
300.744
300.705
300.689
300.686
300.686
300.687
300.687
300.686
300.685
300.684
300.682
300.674
300.649
300.632
300.618
300.749
300.785
300.809
300.825
300.838
300.849
300.858
300.866
300.872
300.878
300.883
300.887
300.891
300.895
300.898
300.902
300.906
300.91
300.915
300.92
300.925
300.93
300.937
300.915
300.854
300.787
300.729
300.695
300.683
300.68
300.68
300.68
300.679
300.678
300.676
300.675
300.667
300.643
300.627
300.614
300.743
300.78
300.805
300.822
300.836
300.847
300.857
300.865
300.872
300.878
300.883
300.887
300.891
300.895
300.899
300.902
300.906
300.91
300.915
300.919
300.924
300.93
300.934
300.925
300.878
300.815
300.752
300.705
300.681
300.674
300.673
300.672
300.672
300.67
300.669
300.667
300.66
300.637
300.621
300.61
300.735
300.774
300.8
300.818
300.833
300.845
300.855
300.864
300.871
300.878
300.883
300.888
300.892
300.895
300.899
300.903
300.906
300.91
300.914
300.919
300.923
300.927
300.93
300.926
300.889
300.829
300.765
300.711
300.679
300.668
300.665
300.664
300.663
300.662
300.66
300.659
300.652
300.63
300.615
300.605
300.724
300.765
300.794
300.814
300.829
300.842
300.853
300.863
300.871
300.877
300.883
300.887
300.892
300.896
300.899
300.903
300.907
300.91
300.914
300.918
300.922
300.925
300.926
300.92
300.887
300.828
300.766
300.709
300.674
300.66
300.657
300.656
300.655
300.653
300.651
300.649
300.643
300.622
300.608
300.599
300.708
300.754
300.785
300.807
300.824
300.838
300.85
300.86
300.869
300.876
300.882
300.887
300.892
300.896
300.9
300.904
300.907
300.91
300.914
300.917
300.919
300.92
300.917
300.908
300.881
300.816
300.754
300.699
300.664
300.652
300.648
300.647
300.645
300.643
300.641
300.639
300.633
300.614
300.601
300.593
300.689
300.74
300.775
300.799
300.817
300.832
300.844
300.855
300.865
300.872
300.879
300.885
300.89
300.894
300.899
300.902
300.906
300.909
300.911
300.913
300.914
300.912
300.906
300.891
300.859
300.797
300.732
300.683
300.654
300.642
300.639
300.637
300.634
300.632
300.63
300.628
300.621
300.605
300.593
300.586
300.66
300.723
300.763
300.789
300.809
300.825
300.838
300.85
300.859
300.868
300.875
300.881
300.887
300.892
300.896
300.9
300.904
300.906
300.908
300.908
300.906
300.901
300.89
300.869
300.832
300.772
300.71
300.666
300.642
300.632
300.628
300.625
300.622
300.619
300.617
300.615
300.609
300.594
300.584
300.578
300.618
300.702
300.748
300.778
300.799
300.816
300.83
300.842
300.852
300.861
300.868
300.875
300.882
300.887
300.892
300.896
300.899
300.901
300.902
300.9
300.896
300.887
300.871
300.845
300.803
300.745
300.689
300.651
300.63
300.621
300.616
300.612
300.608
300.605
300.603
300.601
300.595
300.583
300.574
300.569
300.569
300.677
300.731
300.764
300.787
300.806
300.82
300.832
300.843
300.852
300.86
300.867
300.874
300.88
300.885
300.888
300.891
300.892
300.891
300.887
300.88
300.867
300.847
300.816
300.771
300.718
300.669
300.636
300.617
300.607
300.601
300.596
300.592
300.588
300.586
300.584
300.579
300.569
300.563
300.557
300.526
300.65
300.711
300.748
300.774
300.793
300.809
300.822
300.833
300.843
300.851
300.858
300.864
300.87
300.874
300.877
300.878
300.878
300.875
300.868
300.857
300.84
300.815
300.78
300.737
300.689
300.648
300.619
300.601
300.591
300.583
300.577
300.572
300.568
300.566
300.564
300.56
300.553
300.549
300.543
300.499
300.62
300.689
300.73
300.758
300.779
300.796
300.81
300.821
300.831
300.839
300.847
300.852
300.857
300.86
300.861
300.86
300.857
300.85
300.839
300.823
300.801
300.772
300.736
300.695
300.656
300.622
300.598
300.581
300.57
300.561
300.554
300.548
300.544
300.542
300.54
300.538
300.534
300.531
300.525
300.492
300.592
300.666
300.711
300.741
300.763
300.78
300.795
300.806
300.816
300.824
300.831
300.836
300.839
300.841
300.839
300.835
300.828
300.816
300.8
300.779
300.751
300.719
300.684
300.648
300.617
300.591
300.571
300.555
300.543
300.533
300.524
300.518
300.514
300.512
300.512
300.511
300.509
300.507
300.5
300.498
300.577
300.647
300.691
300.722
300.744
300.762
300.776
300.787
300.796
300.803
300.808
300.812
300.812
300.811
300.806
300.797
300.785
300.769
300.747
300.722
300.693
300.661
300.63
300.601
300.575
300.553
300.535
300.519
300.506
300.495
300.486
300.481
300.477
300.476
300.476
300.475
300.475
300.471
300.461
300.512
300.577
300.634
300.672
300.7
300.72
300.736
300.748
300.757
300.764
300.768
300.77
300.769
300.765
300.759
300.749
300.736
300.719
300.698
300.674
300.648
300.621
300.593
300.567
300.543
300.522
300.502
300.484
300.468
300.454
300.444
300.436
300.43
300.427
300.425
300.423
300.422
300.418
300.41
300.392
300.53
300.584
300.623
300.65
300.669
300.683
300.692
300.699
300.702
300.703
300.701
300.697
300.69
300.681
300.669
300.655
300.639
300.62
300.601
300.581
300.56
300.541
300.522
300.505
300.49
300.476
300.465
300.454
300.446
300.436
300.426
300.417
300.407
300.399
300.391
300.383
300.374
300.363
300.347
300.319
)
