
101
(
-23.1469
-12.3211
-28.8033
-13.4358
-34.0545
-18.7049
-20.5041
-11.8156
-26.2508
-12.6789
-31.3694
-14.792
-11.8245
-24.58
-12.4391
-29.7801
-14.0398
-21.7706
-12.102
-27.7737
-13.017
-33.0806
-15.615
-7.53267
-13.4899
-13.382
-7.37004
-22.9309
-25.5942
-29.9269
-37.5355
-36.8262
-24.2136
-27.4729
-32.6759
-39.2591
-23.4641
-26.4056
-31.1418
-38.6844
-24.8603
-28.7285
-33.8469
-38.8268
-9.10881
-10.6075
-7.79506
-11.4952
-11.6907
-14.5778
-19.5104
-14.0767
-11.1291
-11.2265
-12.9578
-16.7004
-8.38645
-13.6836
-10.7725
-9.77806
-11.1467
-12.2705
-15.5755
-14.1374
-11.3373
-11.3068
-13.7275
-17.9781
-10.9436
-13.1796
-17.0491
-10.4325
-11.9356
-14.8713
-13.4741
-17.4506
-23.5011
-12.2454
-15.2563
-20.0328
-10.4715
-11.4023
-13.9868
-10.5894
-12.4965
-15.8678
-14.2737
-18.6656
-12.747
-16.3498
-21.5917
-14.1375
-13.716
-22.773
-22.0177
-20.8962
-15.788
-14.5372
-15.1977
-14.4895
-15.3891
)
