
101
(
307.917
305.175
309.134
305.679
310.314
306.318
307.342
305.051
308.518
305.442
309.749
305.986
305.027
308.231
305.304
309.402
305.817
307.614
305.101
308.82
305.563
310.116
306.171
304.397
305.969
306.098
304.394
306.408
306.935
307.761
309.124
308.982
306.676
307.334
308.327
309.356
306.535
307.132
308.027
309.218
306.796
307.522
308.551
309.315
304.779
304.874
304.48
305.08
305.136
305.652
306.505
306.178
304.992
305.039
305.366
306.021
304.708
306.052
304.918
305.207
305.019
305.243
305.826
306.232
305.038
305.061
305.502
306.242
305.274
305.648
306.399
305.209
305.446
305.976
306.053
306.554
307.712
305.925
306.248
307.043
305.258
305.355
305.803
305.225
305.534
306.171
306.155
306.778
305.949
306.376
307.343
304.478
304.567
306.331
306.172
305.943
305.011
304.69
304.871
304.699
304.928
)
