
14
(
-63.7722
-33.5907
-63.0013
-42.3004
-39.0215
-32.0366
-45.7911
-24.565
-15.0122
-59.8318
-31.1537
-36.9141
-21.7972
-32.0752
)
