
14
(
313.441
308.845
313.453
310.524
310.073
308.566
311.258
307.41
306.16
313.669
308.007
308.876
307.592
308.666
)
