
56
(
-13.3019
-28.0585
-22.5529
-18.2503
-18.1501
-19.8399
-14.7733
-13.9001
-18.212
-22.3312
-17.9914
-18.8067
-17.9901
-15.2987
-13.5921
-17.2047
-30.7345
-28.3094
-33.5652
-25.9013
-27.5872
-32.0631
-29.4879
-32.9856
-31.0903
-33.5215
-6.09823
-16.3623
-29.1028
-33.2904
-32.0152
-26.4045
-10.3562
-22.2616
-16.8359
-23.4165
-22.8419
-26.2943
-24.7032
-22.4288
-21.7697
-22.4829
-8.30178
-24.1848
-25.1018
-24.8168
-17.5501
-26.5356
-24.344
-24.4525
-24.7936
-24.4831
-28.633
-19.0851
-32.411
-30.5638
)
