
56
(
303.798
306.459
305.948
304.874
304.716
305.258
305.524
304.999
306.334
305.441
304.725
305.034
304.757
305.819
305.12
304.498
308.372
307.639
309.05
306.311
307.392
308.778
307.997
309.11
308.698
309.127
304.797
304.755
308.323
309.17
308.909
307.147
306.278
305.273
306.808
305.506
305.354
308.621
305.743
305.286
307.821
305.337
305.156
305.684
305.816
305.824
304.808
306.03
305.722
305.712
306.409
307.835
308.718
306.696
307.535
307.078
)
