
59
(
-10.9665
-7.00567
-4.49693
-10.1972
-23.3391
-25.8826
-19.9821
-26.5502
-23.1489
-24.3319
-24.2725
-2.51248
-24.009
-27.3363
-26.6286
-8.13272
-22.6933
-24.4593
-27.2013
-23.6004
-25.5076
-25.1469
-9.94123
-3.77212
-5.9364
-10.1135
-5.87272
-24.8363
-6.34827
-15.4387
-10.6609
-24.7265
-12.893
-23.7668
-24.0936
-20.5532
-23.0625
-3.06364
-10.0859
-3.84236
-23.5277
-9.36133
-24.9934
-14.0923
-21.3112
-15.8184
-10.5894
-20.3711
-13.4715
-3.8449
-10.6179
-23.6328
-10.9668
-26.3592
-7.51312
-11.4999
-4.53959
-21.2577
-11.3315
)
