
59
(
305.667
304.624
304.368
305.259
307.226
307.789
308.04
307.826
307.439
307.876
307.459
304.323
307.319
308.017
308.663
304.812
307.923
307.413
308.034
307.545
307.622
307.535
304.988
304.722
304.477
305.441
304.455
308.094
304.387
306.174
306.653
308.941
306.114
308.413
308.124
306.949
307.546
304.131
305.054
304.135
307.866
305.649
308.354
305.926
307.085
306.194
306.585
307.497
305.689
303.846
305.161
308.13
305.835
308.888
305.202
305.345
304.403
307.281
305.908
)
