
91
(
-22.9499
-17.4137
-9.67609
-7.8961
-9.72418
-19.6139
-10.8178
-17.8651
-9.63825
-9.67446
-19.2503
-16.92
-23.4312
-17.3522
-17.1518
-17.3263
-23.7253
-23.3727
-23.5245
-25.51
-16.0697
-15.4364
-19.1015
-20.072
-25.546
-24.5168
-31.2793
-22.7023
-28.9614
-26.1383
-26.8629
-29.4959
-30.6141
-20.3413
-29.9828
-25.1293
-28.4333
-27.3224
-15.6985
-14.9295
-17.9666
-18.5376
-27.0191
-23.8686
-16.5879
-16.3209
-20.8446
-21.8257
-24.1988
-25.2251
-29.8114
-19.338
-30.6188
-24.0348
-28.6934
-26.5813
-31.2587
-21.4141
-29.4437
-25.7519
-27.8725
-28.364
-15.8197
-16.9472
-19.9341
-25.1394
-27.774
-16.4701
-17.9629
-22.8921
-26.0378
-16.1092
-17.4697
-21.3101
-25.4697
-16.7725
-18.8566
-24.3566
-26.8216
-21.3899
-26.6377
-27.9126
-32.9649
-30.1185
-29.1338
-32.9274
-28.5141
-27.7912
-34.0357
-29.2316
-31.5081
)
