
91
(
308.036
305.887
305.13
304.767
305.22
307.089
305.134
306.589
305.163
305.239
307.148
306.454
306.287
305.242
306.516
306.729
308.204
307.691
308.244
308.06
306.191
306.395
307.034
307.16
308.602
307.875
308.959
307.605
308.965
308.11
308.493
308.747
308.804
307.222
309.049
307.996
308.873
308.333
306.105
306.329
306.735
306.927
308.946
307.769
306.339
306.545
307.487
307.434
308.334
307.998
308.611
307.09
309.02
307.833
308.916
308.189
308.911
307.404
309.021
308.064
308.737
308.533
305.788
306.015
306.55
307.449
307.901
305.918
306.198
307.061
307.605
305.848
306.111
306.789
307.507
305.976
306.359
307.313
307.739
306.535
306.791
307.136
307.862
307.476
307.19
307.902
307.228
306.986
308.051
307.339
307.694
)
