
690
(
1.96017
1.96249
1.89068
1.78164
1.65389
1.51089
1.33385
1.17351
1.0529
0.951073
0.866537
0.796078
0.736094
0.681849
0.631839
0.582831
0.534077
0.484234
0.432191
0.375484
0.310824
0.227967
0.11233
-0.0498253
2.02969
2.05188
2.00946
1.9211
1.80399
1.66989
1.49895
1.32669
1.18482
1.09547
1.01467
0.936107
0.871088
0.815723
0.764002
0.714082
0.663493
0.610532
0.551267
0.478714
0.383954
0.256241
0.0860777
-0.114381
2.08789
2.10291
2.07013
1.99489
1.88742
1.75875
1.61531
1.46152
1.31563
1.19416
1.09533
1.01564
0.953319
0.902599
0.85069
0.797439
0.738308
0.675022
0.60194
0.509733
0.388422
0.233102
0.0482725
-0.131217
2.14358
2.14713
2.11357
2.04403
1.94433
1.82269
1.68665
1.54572
1.41012
1.28673
1.18063
1.09287
1.02192
0.964085
0.914136
0.86129
0.785443
0.705501
0.616119
0.507711
0.370983
0.2074
0.0295603
-0.122001
2.19417
2.18933
2.15188
2.08299
1.98652
1.86935
1.73839
1.60222
1.46976
1.34763
1.24029
1.14885
1.07196
1.00658
0.948038
0.891113
0.818792
0.715501
0.611349
0.494413
0.354849
0.195993
0.03192
-0.0998236
2.23535
2.22794
2.18776
2.11731
2.02025
1.90391
1.7752
1.64163
1.5106
1.38852
1.27943
1.18426
1.10202
1.02969
0.962797
0.896513
0.824807
0.715219
0.598193
0.480839
0.347918
0.19983
0.0483239
-0.0734257
2.26589
2.26037
2.22029
2.14816
2.04768
1.92894
1.79951
1.66604
1.5351
1.41227
1.30114
1.20257
1.11565
1.03728
0.963177
0.888978
0.810778
0.708457
0.584514
0.472468
0.351629
0.215845
0.073212
-0.046172
2.28256
2.28245
2.24543
2.1726
2.0667
1.94404
1.81235
1.67752
1.54554
1.42158
1.30874
1.20744
1.11657
1.03317
0.953639
0.874336
0.792876
0.70559
0.573367
0.469288
0.362875
0.238417
0.10135
-0.0198983
2.28262
2.29123
2.2604
2.18782
2.07183
1.94523
1.80827
1.66971
1.53605
1.41118
1.29736
1.19469
1.10173
1.01587
0.933973
0.853506
0.772621
0.689463
0.56626
0.470339
0.37885
0.264272
0.130552
0.00467528
2.26336
2.28242
2.25997
2.18776
2.04076
1.89885
1.7724
1.64342
1.51338
1.38892
1.27422
1.17037
1.07635
0.989969
0.908435
0.829842
0.752915
0.675964
0.549923
0.472936
0.396103
0.290117
0.158899
0.0275769
2.22233
2.25242
2.24005
2.16601
1.93505
1.72883
1.67151
1.59003
1.4584
1.32938
1.20992
1.10294
1.00679
0.920923
0.843068
0.770823
0.703681
0.634679
0.462115
0.473894
0.411401
0.31299
0.184187
0.0475037
2.15885
2.19978
2.19758
2.12048
0.471986
0.422952
0.3315
0.205632
0.0642478
2.07157
2.12176
2.12905
2.0584
0.470611
0.427948
0.342858
0.220896
0.0762985
1.96359
2.02068
2.03729
1.97649
0.463549
0.425315
0.346068
0.229339
0.0834587
1.83781
1.89912
1.924
1.87456
0.449675
0.414147
0.339782
0.230093
0.0856839
1.69967
1.76187
1.79312
1.75449
0.427323
0.393301
0.322656
0.221762
0.0818519
1.55224
1.61157
1.6468
1.61757
0.396483
0.362581
0.294252
0.203292
0.070823
1.55315
1.6061
1.63899
1.60971
0.356866
0.321597
0.254032
0.173859
0.0523459
2.58497
2.62347
2.62566
2.54741
0.309713
0.270926
0.201942
0.132847
0.0257582
2.69226
2.7157
2.70417
2.61134
0.253752
0.210858
0.138327
0.0803111
-0.00883665
3.27554
3.22966
3.13942
2.95895
0.189899
0.142455
0.0638806
0.0168342
-0.0506437
2.67541
2.66375
2.61903
2.48625
0.118898
0.0675012
-0.0194601
-0.0565937
-0.10096
2.6583
2.63164
2.56978
2.40629
0.0397855
-0.0126729
-0.109864
-0.137804
-0.15614
2.67017
2.62835
2.54526
2.33165
-0.0489311
-0.0958558
-0.203723
-0.223612
-0.215004
2.82488
2.75925
2.63903
2.35161
-0.143261
-0.181156
-0.298095
-0.31136
-0.276078
2.76598
2.69264
2.55355
2.21324
-0.235692
-0.266579
-0.388037
-0.397344
-0.338717
2.86256
2.7784
2.61146
2.23222
-0.310598
-0.344931
-0.465828
-0.475792
-0.400567
3.54136
3.40149
3.15556
2.75917
-0.353296
-0.41229
-0.526597
-0.542587
-0.460115
3.60519
3.48422
3.2737
2.94724
-0.36474
-0.46803
-0.571092
-0.597596
-0.519438
3.40792
3.30693
3.14324
2.9246
2.66269
2.37742
2.07831
1.7785
1.48884
1.21821
0.972858
0.755491
0.565852
0.401093
0.256575
0.127269
0.00759406
-0.106705
-0.226831
-0.362732
-0.510028
-0.607368
-0.64163
-0.571371
3.52677
3.42448
3.26067
3.04172
2.77905
2.48683
2.17841
1.86729
1.56594
1.28394
1.028
0.80093
0.602555
0.429384
0.276539
0.138051
0.0078646
-0.119753
-0.250633
-0.395535
-0.540104
-0.635077
-0.676416
-0.615253
4.43299
4.26752
4.02133
3.70749
3.34133
2.94289
2.53266
2.12992
1.75107
1.40766
1.1062
0.847827
0.629155
0.443692
0.28298
0.138607
0.00280385
-0.130687
-0.266859
-0.4117
-0.557285
-0.654469
-0.702761
-0.651284
4.32068
4.17095
3.94082
3.64228
3.29098
2.9053
2.50526
2.11042
1.73733
1.39815
1.0997
0.843523
0.626507
0.442341
0.282535
0.138496
0.00220725
-0.13279
-0.271326
-0.416398
-0.562769
-0.665251
-0.721228
-0.681181
3.6367
3.53284
3.36278
3.13552
2.86226
2.55667
2.23361
1.90829
1.59422
1.30195
1.03815
0.805883
0.604213
0.42957
0.275965
0.136445
0.00384505
-0.128261
-0.264844
-0.408492
-0.55521
-0.665157
-0.731406
-0.707228
3.00969
2.95116
2.83882
2.67826
2.47676
2.24369
1.98968
1.72618
1.46388
1.21214
0.977901
0.765773
0.577296
0.411445
0.264769
0.131962
0.00652107
-0.118287
-0.248359
-0.387497
-0.533145
-0.651677
-0.73033
-0.725827
2.93514
2.88458
2.78156
2.63104
2.43939
2.21502
1.96803
1.70902
1.44881
1.19703
0.961458
0.747729
0.558499
0.393697
0.250717
0.124341
0.00797982
-0.105987
-0.224957
-0.354788
-0.495532
-0.622395
-0.715464
-0.736662
2.38261
2.38167
2.3364
2.24779
2.11839
1.95304
1.75848
1.5435
1.31814
1.09275
0.876655
0.677374
0.499551
0.345151
0.212905
0.0986834
-0.003623
-0.10196
-0.204497
-0.318642
-0.447959
-0.578349
-0.686501
-0.741406
0.708092
0.750391
0.779859
0.794566
0.792226
0.771434
0.731622
0.674151
0.601876
0.519037
0.430443
0.340427
0.252733
0.169862
0.0927027
0.0206323
-0.0488484
-0.119582
-0.197063
-0.287401
-0.395867
-0.519009
-0.638193
-0.734624
0.675957
0.719059
0.74783
0.760229
0.754466
0.728995
0.684032
0.621447
0.54467
0.459046
0.369461
0.280656
0.196133
0.118502
0.0487049
-0.0138599
-0.0715657
-0.127538
-0.186591
-0.254153
-0.337662
-0.442249
-0.561344
-0.701552
0.730648
0.774457
0.800909
0.808024
0.793837
0.757207
0.69949
0.623594
0.534347
0.438008
0.340388
0.246706
0.160235
0.0835659
0.017357
-0.0394534
-0.0896502
-0.135795
-0.18239
-0.232876
-0.293874
-0.372347
-0.470586
-0.629369
)
