
96
(
-63.0503
-35.5612
-50.1608
-41.5946
-48.0673
-57.9671
-44.5406
-43.4247
-49.3902
-52.2948
-42.1584
-61.7008
-46.14
-44.4411
-48.8436
-47.1152
-18.4708
-46.9356
-41.6868
-48.284
-53.8654
-43.1711
-48.653
-41.6685
-56.4372
-44.1988
-30.4298
-50.2578
-40.8223
-59.0416
-44.298
-43.4402
-55.1342
-44.7865
-48.8211
-46.3465
-64.6215
-46.7712
-40.2732
-54.1764
-42.6719
-51.3786
-43.9433
-46.9977
-49.6787
-25.11
-18.5893
-55.5085
-32.6143
-20.4355
-52.9279
-34.63
-48.7355
-35.2635
-57.7716
-39.7425
-29.0774
-29.0158
-41.3546
-45.2024
-35.6056
-47.008
-43.3944
-37.443
-53.9267
-53.8338
-29.7824
-18.7818
-27.7267
-39.0941
-54.0858
-50.1994
-31.3766
-48.0191
-42.3455
-61.1409
-28.9257
-37.2758
-26.9123
-50.825
-34.6004
-60.6344
-59.4656
-31.0517
-33.2308
-32.345
-28.8366
-63.7138
-20.2205
-28.2925
-59.5168
-56.7704
-77.4394
-74.0941
-55.3558
-62.8432
)
