
96
(
313.908
309.413
311.796
310.415
311.919
313.065
310.872
310.814
311.692
312.228
310.389
313.877
311.087
310.914
314.197
311.114
307.713
311.301
310.517
311.533
312.415
310.657
311.553
310.374
313.036
310.736
310.308
311.67
310.061
313.26
310.65
310.682
313.263
311.125
312.055
311.313
314.182
311.104
310.144
312.423
310.373
312.568
310.937
311.636
314.352
307.191
307.51
312.421
309.949
306.983
311.947
309.279
314.009
310.628
313.196
310.052
310.647
309.108
310.781
311.014
309.219
311.371
313.069
309.619
315.152
314.486
310.406
306.929
307.914
310.009
312.882
313.902
309.394
311.58
310.69
315.026
308.405
309.613
307.779
313.096
309.162
314.908
313.188
308.483
309.109
309.553
308.179
315.641
307.185
309.128
313.283
315.564
316.909
316.36
315.812
315.158
)
