# Source : cellZone back_left_T
# Cells  : 419
# Time	sum(V)	volAverage(T)	volAverage(X)	volAverage(p)	volAverage(Qr)
600	0.00640775	302.055	0.00952413	100041	0
