# Source : cellZone back_right_T
# Cells  : 419
# Time	sum(V)	volAverage(T)	volAverage(X)	volAverage(p)	volAverage(Qr)
600	0.00640775	301.71	0.0101632	100041	0
