# Source : cellZone femur_left_back_T
# Cells  : 619
# Time	sum(V)	volAverage(T)	volAverage(X)	volAverage(p)	volAverage(Qr)
600	0.00977313	301.763	0.0092132	100042	0
