# Source : cellZone femur_right_back_T
# Cells  : 540
# Time	sum(V)	volAverage(T)	volAverage(X)	volAverage(p)	volAverage(Qr)
600	0.00850484	301.564	0.00979738	100042	0
