# Source : cellZone forearm_right_front_T
# Cells  : 152
# Time	sum(V)	volAverage(T)	volAverage(X)	volAverage(p)	volAverage(Qr)
600	0.00226063	301.374	0.0105878	100041	0
