# Source : cellZone head_T
# Cells  : 391
# Time	sum(V)	volAverage(T)	volAverage(X)	volAverage(p)	volAverage(Qr)
600	0.00595878	301.402	0.0103555	100040	0
