# Source : cellZone lowerleg_right_back_T
# Cells  : 228
# Time	sum(V)	volAverage(T)	volAverage(X)	volAverage(p)	volAverage(Qr)
600	0.00362306	301.768	0.00969498	100041	0
