# Source : cellZone lowerleg_left_back_T
# Cells  : 469
# Time	sum(V)	volAverage(T)	volAverage(X)	volAverage(p)	volAverage(Qr)
600	0.00746579	301.679	0.0100053	100041	0
