# Source : patch south
# Faces  : 960
# Time	sum(magSf)	areaAverage(T)	areaAverage(X)	areaAverage(p)	areaAverage(Qr)
600	9.6	301.097	0	100033	2.11841
