# Source : cellZone upperarm_left_back_T
# Cells  : 432
# Time	sum(V)	volAverage(T)	volAverage(X)	volAverage(p)	volAverage(Qr)
600	0.00689191	301.255	0.0104918	100041	0
