# Source : cellZone upperarm_right_front_T
# Cells  : 286
# Time	sum(V)	volAverage(T)	volAverage(X)	volAverage(p)	volAverage(Qr)
600	0.00443021	301.482	0.0105212	100041	0
