# Source : cellZone waist_right_front_T
# Cells  : 327
# Time	sum(V)	volAverage(T)	volAverage(X)	volAverage(p)	volAverage(Qr)
600	0.00482431	301.544	0.0101724	100040	0
