# Source : patch west
# Faces  : 690
# Time	sum(magSf)	areaAverage(T)	areaAverage(X)	areaAverage(p)	areaAverage(Qr)
600	6.9	301.092	0	100033	1.00238
