# Source : patch floor
# Faces  : 588
# Time	sum(magSf)	areaAverage(T)
60	23.52	302.68
120	23.52	302.53
180	23.52	302.46
240	23.52	302.48
300	23.52	302.44
360	23.52	302.43
420	23.52	302.4
480	23.52	302.41
540	23.52	302.42
600	23.52	302.38
660	23.52	302.4
720	23.52	302.4
780	23.52	302.4
840	23.52	302.4
900	23.52	302.4
