
39
(
-36.129
-34.8144
-38.9331
-32.362
-41.9769
-32.097
-48.6337
-45.3011
-27.725
-46.5266
-34.605
-29.8841
-38.901
-52.5332
-54.3343
-53.3167
-39.6145
-60.1083
-55.956
-52.0333
-61.9465
-7.24045
-35.1274
-47.0771
-10.7315
-46.0836
-36.387
-33.7808
-30.9531
-36.4044
-31.2233
-74.1754
-77.9428
-70.175
-37.2546
-40.5458
-42.4241
-38.0101
-40.9019
)
