
39
(
309.431
311.571
310.259
309.918
312.295
310.236
312.179
310.987
309.199
313.167
309.715
309.979
311.709
313.254
311.895
311.026
308.863
312.289
311.591
310.746
312.701
305.958
308.548
309.876
307.428
309.808
308.479
308.974
310.906
309.155
308.752
314.329
314.837
313.848
311.379
311.909
312.2
311.944
311.619
)
