# Source : cellZone face_T
# Cells  : 209
# Time	sum(V)	volAverage(T)	volAverage(X)	volAverage(p)	volAverage(Qr)
180	0.00323678	301.336	0.0105662	100039	0
