
140
(
-18.4055
-29.0055
-17.4769
-22.849
-20.6722
-25.0271
-10.4124
-16.1362
-10.1948
-15.7012
-29.4738
-24.3588
-22.115
-23.9231
-20.2148
-28.2756
-15.0795
-23.519
-7.4191
-22.0023
-15.0872
-22.43
-16.4338
-20.8323
-16.407
-23.639
-34.1814
-29.016
-32.2336
-29.3205
-23.5849
-21.9454
-19.9599
-19.0855
-21.2907
-26.2605
-23.5872
-41.5434
-18.0904
-24.1453
-20.3919
-17.9946
-25.6746
-22.5202
-32.6107
-8.82633
-28.6065
-22.6664
-13.8813
-18.7927
-12.2407
-27.6955
-16.8732
-9.87937
-22.0677
-12.6876
-27.291
-18.6683
-16.2412
-20.2624
-12.4963
-17.6857
-20.6691
-26.3866
-17.9824
-23.4595
-30.6051
-22.2931
-10.7876
-33.3928
-19.3107
-14.5119
-23.5587
-14.8787
-15.6037
-36.3937
-21.0418
-30.6438
-33.9887
-26.565
-14.2685
-25.0119
-14.4591
-37.7081
-25.2949
-13.4184
-32.6701
-21.8159
-14.98
-13.8479
-25.0357
-30.6062
-19.2072
-14.9514
-20.2989
-33.6266
-17.834
-32.1142
-22.1211
-32.608
-32.1335
-19.4071
-36.2377
-29.6955
-17.9634
-35.1036
-24.4201
-30.2311
-14.6824
-32.8505
-33.5241
-35.3685
-34.7008
-22.4593
-16.6762
-35.9936
-25.3147
-17.0091
-10.945
-37.0708
-29.343
-36.096
-36.1875
-33.4221
-30.9591
-37.7455
-21.6519
-18.4075
-21.2461
-12.1948
-30.389
-16.5943
-19.1248
-25.3739
-26.6165
-10.098
-26.7543
-29.5242
-9.7387
-13.4382
)
