
140
(
307.005
307.954
306.113
306.705
307.949
308.071
306.659
304.958
305.801
304.806
309.093
305.702
305.339
307.251
305.713
308.216
307.247
308.027
306.508
306.393
304.68
307.875
304.96
305.043
304.402
305.59
309.757
307.676
309.051
308.404
307.232
305.855
306.229
305.119
305.853
306.358
305.922
308.535
304.84
306.428
305.455
305.8
306.274
305.489
307.871
303.792
308.729
307.962
304.72
305.701
305.738
308.273
305.379
305.196
305.425
304.475
308.65
307.559
305.307
305.97
305.581
305.506
305.018
307.509
308.154
308.246
308.1
306.588
304.077
308.335
305.769
307.595
309.73
306.036
304.92
307.856
306.507
307.744
307.393
306.173
304.914
306.406
304.535
308.81
306.117
304.732
307.675
305.279
305.539
307.445
308.874
308.178
305.908
305.745
308.054
310.881
306.434
307.196
305.52
308.821
308.581
305.62
307.796
307.383
305.753
308.245
305.771
307.134
305.774
308.223
308.489
308.75
307.612
305.663
304.597
307.884
305.883
304.424
304.985
309.041
306.883
309.018
309.195
308.385
306.907
308.195
305.272
304.744
306.217
305.312
308.801
305.708
305.725
307.652
307.622
304.461
308.589
307.639
307.108
306.095
)
