
61
(
-42.6166
-36.24
-59.5994
-35.7795
-24.2695
-37.3039
-40.5725
-34.0751
-39.0553
-59.3136
-53.618
-64.5142
-48.7803
-39.7842
-36.2218
-39.4402
-26.4554
-44.3871
-27.3263
-61.7946
-56.5199
-33.7388
-53.4107
-29.7745
-50.4876
-77.5761
-65.219
-51.1614
-83.7325
-28.5223
-42.1199
-49.896
-44.834
-36.0774
-54.0412
-52.9101
-63.5075
-25.6479
-53.2641
-51.5817
-56.0716
-58.3998
-67.442
-79.5091
-37.2253
-42.1125
-47.4041
-27.8886
-36.1439
-38.9291
-11.9321
-41.882
-60.0213
-33.801
-80.3828
-71.9573
-75.8724
-20.6288
-30.3647
-15.0099
-37.7776
)
