
61
(
311.021
309.589
315.374
310.556
308.688
309.326
312.129
310.301
311.967
311.932
311.41
313.083
312.072
309.54
311.804
312.321
309.294
312.507
309.461
312.269
311.63
309.267
312.168
307.519
312.288
314.636
312.993
312.085
315.72
310.772
312.054
312.067
311.664
309.14
313.56
310.854
312.469
310.899
311.968
312.594
314.475
311.799
313.228
316.659
310.085
313.201
311.859
308.378
309.793
310.069
306.048
309.529
312.255
308.649
315.738
316.098
314.835
306.979
309.091
308.549
308.75
)
