# Source : patch face_Object01
# Faces  : 53
# Time	sum(magSf)	areaAverage(T)	areaAverage(X)	areaAverage(p)	areaAverage(Qr)
195	0.0263509	309.243	4.7404e-05	100039	-38.1415
