# Source : patch face_Object01
# Faces  : 53
# Time	sum(magSf)	areaAverage(T)	areaAverage(X)	areaAverage(p)	areaAverage(Qr)
540	0.0263509	309.206	4.30787e-05	100039	-37.9867
