
104
(
-37.9681
-45.2783
-49.5507
-46.4646
-48.3833
-51.972
-63.1959
-46.6959
-39.2092
-40.562
-36.6415
-47.6041
-45.5872
-45.5919
-48.0375
-48.1989
-41.3907
-43.087
-37.725
-52.0064
-47.5425
-60.8084
-59.1098
-53.5427
-45.1407
-30.6908
-48.1224
-17.9611
-50.4794
-38.1844
-52.2087
-48.441
-51.1915
-47.7537
-25.2515
-26.785
-40.1563
-40.9587
-34.246
-38.9304
-16.4339
-54.6934
-38.8266
-43.1825
-38.6209
-28.1273
-28.7308
-38.8377
-40.8176
-38.127
-51.1087
-54.6157
-56.7266
-35.7714
-39.6686
-42.7848
-55.1288
-62.2045
-56.7249
-39.1027
-50.4035
-29.1725
-22.7155
-38.6866
-26.2359
-50.1693
-34.5246
-42.6543
-55.5765
-39.0792
-37.2718
-55.0752
-39.4786
-64.8832
-37.4922
-38.6197
-51.6571
-36.0204
-28.16
-37.2101
-42.2748
-56.7063
-55.0733
-60.3542
-49.9221
-57.6629
-55.0921
-56.1869
-63.5868
-40.472
-39.1473
-42.7291
-17.6527
-44.144
-20.2814
-39.4192
-40.9848
-43.2774
-43.0743
-32.0092
-36.53
-43.0813
-17.0998
-36.9529
)
