
104
(
310.886
311.266
311.757
311.654
311.552
310.913
316.776
309.879
309.154
310.907
310.833
310.099
311.164
311.338
310.03
310.376
310.986
311.373
308.57
310.993
311.459
313.507
312.877
310.988
310.411
307.105
310.08
306.671
310.767
308.689
310.824
310.379
311.011
310.855
308.069
306.683
308.944
311.459
308.099
311.158
305.914
312.975
311.081
312.074
310.632
307.789
307.486
311.245
311.607
310.998
313.16
312.489
312.9
309.578
308.944
310.678
311.094
313.676
311.207
308.682
310.753
308.722
306.585
309.55
306.886
310.733
309.002
311.023
311.126
309.069
308.505
311.086
309.186
315.645
308.955
308.904
311.194
309.84
306.986
308.44
309.237
311.04
311.878
311.643
310.568
311.208
311.822
310.949
312.552
309.264
308.762
311.195
306.738
311.616
306.944
308.918
310.213
311.384
311.172
309.026
309.51
310.551
307.252
308.999
)
