
53
(
-36.7756
-54.7169
-26.7341
-52.3942
-42.4224
-45.3646
-46.4128
-66.3383
-61.0941
-34.0487
-34.2774
-70.6824
-75.7404
-63.3724
-9.6091
-71.1411
-51.6223
-37.2275
-11.199
-27.7354
-62.2019
-53.5468
-25.4531
-62.8839
-31.4664
-63.7994
-35.8248
-44.5168
-78.2091
-53.6558
-58.1617
-50.5176
-72.9318
-38.2754
-40.1571
-39.0609
-43.8344
-76.8913
-52.3065
-54.4556
-55.5669
-65.7598
-42.7781
-43.4091
-51.9292
-62.1551
-40.5852
-59.8679
-57.7704
-18.1395
-40.5956
-37.7934
-40.8922
)
