
53
(
312.118
313.438
311.644
312.545
309.465
310.206
315.848
313.153
314.436
309.165
313.971
313.753
314.919
313.651
307.317
314.264
312.621
312.824
306.933
312.142
312.815
311.651
311.701
312.783
312.738
312.998
308.178
311.514
315.515
311.718
314.429
312.238
315.087
309.691
312.621
310.298
311.234
315.425
311.199
313.528
312.485
314.581
309.723
310.346
310.933
314.451
309.267
314.405
312.882
309.238
309.389
313.558
309.072
)
