
141
(
-21.8342
-5.6736
-18.1747
-12.4475
-14.8912
-36.267
-8.30721
-15.8276
-27.2505
-30.2808
-27.089
-34.0074
-26.7008
-24.6484
-16.601
-27.962
-19.7381
-18.697
-11.044
-8.42533
-31.1882
-15.6798
-12.4113
-17.5779
-15.6186
-29.2814
-20.0207
-33.2422
-29.1474
-25.9048
-23.4591
-22.7484
-27.0823
-15.2254
-7.81417
-17.7442
-25.549
-23.5729
-30.8769
-33.4118
-17.1976
-32.5349
-29.425
-23.3621
-15.1933
-20.7318
-19.5958
-23.2397
-26.8256
-17.944
-19.3377
-29.3063
-5.57324
-14.4634
-15.5483
-25.5658
-22.8011
-29.3484
-14.3164
-16.8762
-10.6441
-33.7895
-14.94
-22.4028
-37.7303
-23.9976
-15.4693
-26.8141
-30.0682
-24.7593
-32.1314
-23.5015
-27.0021
-23.7903
-8.75129
-18.7859
-19.3689
-21.3885
-28.2993
-13.7686
-11.7844
-30.7508
-36.7126
-18.2128
-25.8677
-28.1179
-22.5515
-24.5609
-26.946
-25.5731
-39.7663
-36.0198
-6.53127
-39.6379
-4.4717
-8.69131
-20.1961
-37.0064
-22.0956
-33.5748
-31.5178
-19.2993
-23.3977
-14.9454
-36.4403
-23.963
-23.3315
-22.26
-13.9236
-35.0383
-19.3857
-29.0164
-29.5581
-22.6114
-35.2432
-18.5524
-23.8723
-15.4313
-21.3386
-17.488
-34.5886
-24.8852
-22.8241
-33.061
-21.1442
-24.489
-17.1211
-26.8611
-19.6992
-38.5571
-20.0086
-25.1333
-21.7636
-7.53659
-31.2986
-23.5279
-12.0319
-24.3064
-5.99587
-14.0085
-29.3842
)
