
141
(
307.552
306.583
306.301
307.66
307.26
308.879
307
309.556
307.678
308.096
306.508
307.855
306.799
307.242
305.621
306.824
305.54
305.885
304.2
306.845
306.784
307.976
307.162
308.87
305.637
307.991
305.224
307.667
306.898
306.81
306.942
306.851
306.763
305.241
305.72
306.022
306.814
305.561
306.862
308.591
305.951
307.046
306.591
306.624
304.067
307.217
306.279
306.473
307.991
304.609
307.417
308.163
304.012
304.92
304.903
308.613
306.095
308.729
307.131
307.223
305.176
307.445
304.011
305.639
308.181
305.648
304.784
308.087
307.5
306.692
308.184
307.2
306.912
306.277
303.754
307.701
307.735
305.874
308.714
305.156
307.04
306.866
308.004
304.651
307.68
307.179
306.978
306.697
306.491
306.713
310.809
309.219
304.95
309.7
304.345
305.244
305.732
308.675
305.506
307.837
307.078
304.897
306.299
304.131
307.811
305.703
306.06
306.582
305.865
308.23
304.866
306.894
306.645
306.49
307.634
304.763
306.263
304.138
306.08
305.506
308.658
307.164
306.579
309.431
307.075
307.118
305.411
308.598
305.05
308.607
305.879
307.376
306.336
304.862
309.265
306.82
305.403
308.419
304.432
306.2
307.9
)
