# Source : patch face_Object01
# Faces  : 53
# Time	sum(magSf)	areaAverage(T)	areaAverage(X)	areaAverage(p)	areaAverage(Qr)
525	0.0263509	309.204	4.3163e-05	100039	-37.9719
