
54
(
-38.5834
-25.2767
-23.8305
-26.8121
-16.1662
-16.9748
-24.2964
-21.3127
-15.5513
-31.4471
-29.7336
-20.6729
-26.6793
-42.5938
-16.0237
-36.7282
-12.782
-11.3258
-28.2256
-22.71
-29.9737
-12.4927
-13.1611
-38.797
-17.1486
-17.0726
-18.1119
-15.3972
-18.9275
-2.34902
-41.3785
-29.4885
-10.048
-19.5504
-28.7539
-16.3824
-16.2946
-19.8033
-28.9585
-30.4605
-13.9221
-19.6301
-29.177
-31.5359
-29.3639
-33.3876
-29.1618
-29.8242
-24.1144
-21.5347
-22.2883
-18.2667
-42.4107
-33.8066
)
