
54
(
309.615
306.849
306.723
306.319
307.145
304.474
306.75
305.247
307.303
307.367
307.179
305.424
306.595
308.826
304.323
307.979
305.209
304.458
306.829
305.785
306.786
305.41
305.093
308.771
305.113
306.755
305.186
306.66
306.872
304.548
308.876
306.646
305.872
305.215
306.55
306.187
304.574
305.267
306.575
306.817
304.459
307.796
306.514
306.911
306.478
307.252
306.464
306.639
307.253
306.718
306.866
305.094
309.341
307.576
)
