
106
(
-40.4945
-49.8173
-41.5386
-44.3003
-42.309
-39.0865
-47.9399
-39.7974
-37.1561
-56.6266
-42.5271
-42.5095
-34.0745
-47.1823
-30.0959
-46.2139
-40.8274
-43.0851
-37.3859
-62.8688
-44.5741
-39.2079
-35.6464
-51.8013
-41.2185
-45.5757
-46.6166
-27.2402
-45.4771
-23.2412
-48.6084
-40.1332
-56.9618
-43.0101
-41.9981
-50.0051
-42.6623
-42.0433
-57.6299
-44.8216
-43.0247
-44.327
-38.9477
-16.8641
-44.9099
-39.6159
-52.3619
-41.6269
-63.4635
-46.9765
-42.6573
-42.593
-53.4841
-43.5216
-30.1719
-34.9434
-37.2743
-38.1886
-4.61232
-32.6861
-31.8837
-39.2136
-27.8791
-37.2065
-12.3874
-37.8516
-47.8614
-57.3939
-33.5817
-49.2729
-30.9498
-42.9602
-40.2478
-28.5724
-54.0281
-23.2561
-32.5166
-28.3653
-37.3281
-42.6091
-39.7872
-43.9265
-34.3254
-39.6685
-54.0539
-35.3125
-37.1114
-56.7776
-19.1034
-38.6862
-30.0403
-27.23
-22.5457
-36.5679
-21.355
-28.9207
-34.5575
-28.7994
-56.259
-33.8501
-40.139
-9.78204
-28.6858
-60.7418
-50.6796
-46.4738
)
