
106
(
311.49
312.524
310.627
311.349
310.625
311.416
311.285
309.89
310.969
312.867
310.35
310.528
308.85
314.595
311.514
311.813
310.411
311.016
311.185
313.867
310.734
310.035
310.884
312.004
310.129
314.209
314.688
310.269
314.322
306.833
311.861
310.073
313.32
310.689
310.494
312.033
310.965
310.552
313.367
311.04
310.603
310.913
309.592
307.757
311.133
310.087
312.571
310.37
314.271
311.484
310.583
310.655
312.696
310.81
307.953
311.921
309.032
312.001
308.076
308.975
308.852
312.306
311.338
311.882
306.9
309.142
314.266
314.422
309.983
314.022
309.328
310.666
310.232
310.319
313.839
307.917
308.763
308.304
309.612
311.168
309.933
310.817
309.291
309.986
312.999
310.522
309.584
315.263
306.996
311.53
309.316
307.835
308.543
309.151
307.233
308.188
309.207
308.092
314.034
311.079
309.238
308.164
311.136
313.803
311.703
314.275
)
