
49
(
-38.2763
-29.6996
-40.9625
-51.2476
-40.0449
-45.191
-35.7868
-39.5862
-45.6966
-40.7593
-41.9343
-59.2152
-37.4436
-36.5008
-68.4301
-12.5214
-36.9296
-28.5917
-37.8018
-47.8097
-30.3717
-45.1501
-37.8596
-49.2353
-33.87
-37.4942
-35.7099
-23.0989
-29.4063
-41.482
-39.1663
-35.1247
-34.453
-44.6618
-39.1982
-35.5013
-35.9375
-37.9596
-25.8406
-18.9306
-39.1089
-25.9946
-28.5604
-18.6918
-39.3503
-51.7167
-38.2245
-47.3201
-40.1298
)
