
49
(
309.7
308.33
308.998
313.303
308.747
311.277
309.298
310.01
312.646
308.888
309.251
314.035
310.698
311.259
314.886
306.669
311.215
310.264
308.907
312.405
308.443
312.022
308.713
313.231
309.346
309.553
308.249
308.219
309.894
310.165
309.103
309.202
309.848
311.848
309.948
311.162
311.052
308.365
307.991
307.454
308.721
308.291
309.674
306.263
308.63
311.375
308.579
311.939
308.968
)
