
960
(
1.35873
1.38302
1.33665
1.13072
1.03195
0.929999
0.823294
0.715785
0.612307
0.516681
0.43306
0.363851
0.310259
0.271037
0.245319
0.23139
0.225577
0.225602
0.22518
0.219159
0.202469
0.174852
0.139543
0.0876175
1.44544
1.47621
1.44654
1.32126
1.22005
1.10544
0.983364
0.859277
0.738336
0.625442
0.525331
0.440866
0.373704
0.323423
0.28879
0.267249
0.25528
0.248645
0.240779
0.224916
0.194933
0.151116
0.0978492
0.0356606
1.52548
1.56042
1.55074
1.47621
1.38681
1.2712
1.14041
1.00302
0.866266
0.736668
0.620087
0.52035
0.439453
0.377816
0.333826
0.304566
0.285607
0.27146
0.254803
0.227971
0.18537
0.129698
0.0687718
0.0105719
1.60527
1.64727
1.65413
1.60994
1.53442
1.42433
1.2912
1.14516
0.995629
0.850949
0.718546
0.603303
0.508163
0.433987
0.379216
0.340398
0.312482
0.289155
0.262514
0.224977
0.172675
0.11052
0.0485364
-0.0031664
1.68523
1.73598
1.75567
1.73051
1.66731
1.56496
1.43339
1.28302
1.12421
0.967135
0.820445
0.690322
0.580706
0.493022
0.425882
0.375755
0.337189
0.303533
0.266977
0.220531
0.162058
0.0977391
0.0372882
-0.00903341
1.76236
1.82288
1.85316
1.84077
1.78734
1.69233
1.56423
1.41249
1.24784
1.08108
0.922155
0.778314
0.654405
0.55256
0.471781
0.409101
0.359142
0.315214
0.270061
0.217479
0.156092
0.0922272
0.0339469
-0.008703
1.83364
1.90451
1.94393
1.9412
1.8952
1.80629
1.68167
1.53006
1.36179
1.18799
1.01896
0.862971
0.725727
0.610023
0.515657
0.440174
0.378835
0.325717
0.273824
0.217417
0.155234
0.0932128
0.0365423
-0.0042467
1.89515
1.97622
2.02449
2.02973
1.98975
1.90563
1.78381
1.63258
1.46181
1.28249
1.1053
0.938985
0.789691
0.661078
0.554005
0.466713
0.395374
0.3346
0.277884
0.219626
0.15826
0.0987253
0.0437342
0.0046485
1.94356
2.0348
2.09199
2.1049
2.07048
1.99014
1.87024
1.71885
1.54571
1.36177
1.17774
1.00262
0.843235
0.703895
0.585984
0.48884
0.409465
0.34313
0.283519
0.224779
0.164989
0.108073
0.0543277
0.0163939
1.97561
2.0769
2.14323
2.1641
2.13538
2.05873
1.9401
1.7879
1.612
1.42365
1.23357
1.05107
0.883503
0.735626
0.609606
0.505271
0.420407
0.350494
0.28934
0.231155
0.173341
0.118951
0.066315
0.0292648
1.98781
2.09884
2.17472
2.20417
2.18215
2.10971
1.99261
1.8394
1.66037
1.4674
1.2717
1.08298
0.909075
0.755181
0.623726
0.515139
0.427189
0.355701
0.294366
0.23732
0.181828
0.13002
0.078732
0.0427649
1.97772
2.09782
2.18346
2.22242
2.20839
2.14159
2.02702
1.87337
1.69164
1.49428
1.2933
1.09938
0.920703
0.762998
0.628866
0.518503
0.429812
0.358212
0.297557
0.242112
0.189102
0.139938
0.0901129
0.0556111
1.94273
2.07068
2.16584
2.21504
2.21071
2.15149
2.04157
1.88936
1.70622
1.50552
1.3004
1.10236
0.920579
0.760889
0.626159
0.516262
0.428535
0.358126
0.298923
0.245237
0.19472
0.148008
0.0995349
0.0662086
1.88241
2.01631
2.12008
2.1797
2.18631
2.13697
2.03454
1.88662
1.70458
1.50293
1.29537
1.09476
0.911259
0.751071
0.617092
0.508832
0.423031
0.35449
0.297024
0.245323
0.197222
0.153241
0.106889
0.0762333
1.79728
1.93456
2.04537
2.11489
2.13309
2.09575
2.00383
1.86379
1.68653
1.48704
1.27965
1.07856
0.894729
0.735339
0.603041
0.497192
0.413906
0.347686
0.292282
0.242803
0.197335
0.155865
0.111693
0.0837249
1.69028
1.82747
1.94245
2.02019
2.05
2.02601
1.94732
1.81896
1.65061
1.45734
1.25371
1.05459
0.872151
0.714305
0.584131
0.480726
0.399767
0.335661
0.282094
0.235074
0.192846
0.154796
0.113184
0.0888274
1.56386
1.69697
1.81241
1.89534
1.93507
1.92445
1.86096
1.7473
1.59212
1.40934
1.21317
1.01916
0.84029
0.685223
0.55777
0.457161
0.379236
0.318186
0.268199
0.225245
0.187191
0.151095
0.11158
0.090535
1.55813
1.69315
1.81326
1.90356
1.95314
1.95362
1.90063
1.79478
1.64391
1.46006
1.25808
1.05438
0.863669
0.696537
0.558567
0.44998
0.367121
0.304085
0.254723
0.214158
0.179079
0.144569
0.107451
0.0900473
2.47578
2.68174
2.86245
2.99894
3.07679
3.0839
3.01272
2.86158
2.63875
2.35711
2.03672
1.70113
1.37408
1.07584
0.82048
0.614902
0.458643
0.345873
0.266999
0.211984
0.171622
0.135941
0.10115
0.0899188
2.56974
2.77452
2.9529
3.08679
3.16267
3.16894
3.09759
2.94578
2.72139
2.4354
2.1072
1.76055
1.41989
1.10682
0.837287
0.619559
0.454177
0.335661
0.254076
0.198519
0.158105
0.123406
0.0906522
0.0829192
3.50713
3.7256
3.88968
3.9797
3.98347
3.89383
3.70941
3.43657
3.09184
2.69514
2.27298
1.8533
1.4611
1.11587
0.82893
0.603566
0.435914
0.317244
0.236329
0.181565
0.141765
0.109288
0.0812241
0.0825654
2.59709
2.77824
2.92963
3.03516
3.08445
3.06936
2.98373
2.82779
2.60671
2.33038
2.01569
1.68372
1.35631
1.05377
0.791378
0.577952
0.414787
0.297401
0.21684
0.161999
0.12226
0.0896769
0.0604231
0.058769
2.59652
2.76698
2.9059
2.99808
3.03446
3.00858
2.91546
2.75756
2.53869
2.26846
1.96254
1.64022
1.32189
1.02645
0.768717
0.557443
0.394939
0.277223
0.195925
0.140547
0.100822
0.0687069
0.0406244
0.0419614
2.67121
2.8361
2.96492
3.04286
3.06209
3.01799
2.90758
2.73612
2.50759
2.23264
1.92645
1.60704
1.29332
1.00256
0.748308
0.538547
0.375695
0.256774
0.174025
0.117703
0.0777053
0.0459249
0.0188543
0.0225727
2.8819
3.04598
3.16511
3.22443
3.21712
3.14079
2.9959
2.79132
2.53379
2.23641
1.91546
1.58873
1.27286
0.983016
0.73017
0.520802
0.356968
0.236049
0.151334
0.0936474
0.0528651
0.0208713
-0.00591123
-0.00083811
2.72556
2.87984
2.99079
3.04485
3.03592
2.96278
2.82714
2.63732
2.39957
2.12548
1.82919
1.52578
1.22972
0.954159
0.709586
0.503225
0.338635
0.215258
0.128037
0.0685723
0.0267572
-0.00578767
-0.0329396
-0.0270731
2.67096
2.81973
2.92486
2.97371
2.96077
2.88553
2.75123
2.56566
2.3354
2.07133
1.78638
1.49408
1.20738
0.938008
0.696034
0.489035
0.321826
0.194983
0.10479
0.0432435
0.000398471
-0.032287
-0.0583336
-0.0482801
3.38453
3.53781
3.6274
3.64045
3.57259
3.42644
3.2106
2.93814
2.62234
2.27996
1.92815
1.58277
1.25698
0.960612
0.700987
0.482661
0.307852
0.175768
0.081636
0.0175131
-0.0266828
-0.059127
-0.0821314
-0.0631006
3.31902
3.49659
3.61365
3.65605
3.61667
3.49515
3.2983
3.03629
2.72209
2.37284
2.00736
1.64393
1.29869
0.984236
0.709352
0.479283
0.295955
0.15779
0.059343
-0.00787652
-0.0544052
-0.0891447
-0.114653
-0.0975253
3.09879
3.27919
3.40551
3.46482
3.44886
3.35547
3.19011
2.95984
2.67519
2.35073
2.00332
1.65054
1.3089
0.992522
0.712364
0.475739
0.285913
0.142013
0.038894
-0.0319638
-0.081398
-0.118716
-0.147132
-0.13216
3.2082
3.39682
3.52866
3.59117
3.5751
3.47796
3.30562
3.06531
2.76833
2.42979
2.06719
1.69906
1.34271
1.01319
0.721929
0.47634
0.279408
0.129763
0.0218432
-0.0531649
-0.106206
-0.146619
-0.177893
-0.163842
4.25673
4.4936
4.64464
4.69389
4.6299
4.45106
4.16787
3.79559
3.35624
2.87629
2.38443
1.90735
1.46713
1.07925
0.75162
0.485638
0.278088
0.122269
0.009638
-0.0700324
-0.127521
-0.171767
-0.205434
-0.189853
4.24426
4.50004
4.67013
4.73789
4.68951
4.52109
4.24168
3.8667
3.41857
2.92574
2.41924
1.9283
1.47717
1.08205
0.750624
0.48323
0.274867
0.117465
0.00172558
-0.0825715
-0.145483
-0.194922
-0.232356
-0.216631
3.69501
3.93623
4.10597
4.1895
4.17326
4.05165
3.83088
3.52236
3.14367
2.71814
2.27211
1.83143
1.41853
1.04991
0.735135
0.477155
0.273317
0.117245
-7.11503e-05
-0.0886178
-0.158072
-0.215582
-0.262455
-0.25518
2.71031
2.9289
3.10258
3.21896
3.26517
3.23226
3.12057
2.93385
2.68035
2.37425
2.03327
1.67766
1.32768
1.00116
0.711895
0.467956
0.271537
0.118984
0.00244691
-0.0885354
-0.163671
-0.230155
-0.288012
-0.290369
2.75897
2.98025
3.15472
3.26964
3.31319
3.27623
3.159
2.96562
2.70482
2.39101
2.04265
1.68047
1.32522
0.995448
0.705144
0.462623
0.269492
0.121081
0.00775568
-0.0826038
-0.161617
-0.236524
-0.30577
-0.316549
2.34294
2.5657
2.75263
2.89083
2.96685
2.9696
2.89568
2.74555
2.52511
2.24629
1.92654
1.58708
1.24963
0.934407
0.657268
0.427267
0.246605
0.109918
0.00656098
-0.0772826
-0.155155
-0.236429
-0.320302
-0.349248
0.744412
0.872044
0.992571
1.09902
1.18181
1.23223
1.24526
1.21769
1.1492
1.04356
0.908843
0.756305
0.598296
0.446748
0.310906
0.196304
0.104076
0.0309373
-0.0298202
-0.0871075
-0.150972
-0.230198
-0.326303
-0.381207
0.758035
0.887557
1.00715
1.11002
1.18682
1.22935
1.23217
1.193
1.11287
0.997057
0.854916
0.698588
0.540283
0.392001
0.261599
0.153944
0.0694062
0.00468077
-0.0467997
-0.093303
-0.145781
-0.216103
-0.31407
-0.391086
0.845599
0.979485
1.10138
1.20295
1.27476
1.30895
1.29922
1.24419
1.14662
1.01284
0.854104
0.683859
0.514596
0.358638
0.223166
0.112602
0.0268762
-0.0372336
-0.0861865
-0.126783
-0.168183
-0.221796
-0.300659
-0.365544
)
