
115
(
-19.6281
-35.574
-55.8047
-16.8749
-39.3637
-36.0241
-21.7368
-31.2836
-32.4362
-38.3716
-50.2378
-51.4638
-49.6822
-27.9433
-22.7043
-21.0133
-55.9214
-37.3329
-21.922
-33.4054
-58.5785
-35.6275
-33.7373
-31.3986
-25.2433
-31.7367
-32.9751
-36.9339
-39.3471
-36.6558
-41.4825
-54.7119
-34.249
-57.0182
-57.5594
-59.3717
-38.0774
-34.629
-27.1887
-57.0354
-54.1933
-31.2339
-58.2885
-38.3709
-54.1412
-19.9239
-44.6647
-52.93
-51.2272
-51.8597
-55.3678
-30.8229
-36.5817
-16.604
-43.158
-40.1248
-51.8525
-39.8649
-33.3062
-43.6818
-42.8227
-13.0011
-50.3892
-25.4772
-32.678
-56.0626
-50.8839
-33.0825
-41.4727
-46.6347
-38.5204
-24.3659
-39.2291
-43.5611
-37.4057
-51.3245
-25.1345
-60.4544
-49.4746
-33.072
-27.6273
-43.748
-25.5532
-46.9702
-37.2058
-33.0153
-24.8865
-33.827
-18.8932
-45.5475
-42.4544
-50.7862
-33.6235
-25.4393
-37.6445
-28.3536
-17.7657
-35.3895
-0.875747
-56.6995
-42.5801
-21.6198
-49.5179
-34.0809
-31.0913
-43.8887
-53.4753
-39.229
-44.4614
-40.6973
-28.6157
-28.9679
-30.8709
-27.1198
-34.8638
)
