
115
(
308.87
310.932
313.391
306.733
310.161
308.027
305.436
308.418
307.627
308.667
311.579
311.738
311.192
308.218
306.603
307.037
311.818
308.198
306.349
308.829
313.768
307.955
307.927
307.422
307.874
307.651
309.07
308.342
308.898
308.259
309.796
313.323
309.543
313.539
313.28
312.147
308.236
308.53
306.539
313.375
313.307
307.502
312.117
308.289
313.346
307.071
311.777
312.327
311.829
313.07
313.436
308.75
309.383
305.755
310.968
308.299
312.891
308.525
310.311
308.895
311.392
307.685
312.068
306.387
307.564
313.323
313.123
307.662
308.532
312.19
308.437
309.659
308.144
309.069
310.69
312.977
306.364
314.122
312.685
307.567
307.064
309.099
306.456
309.554
308.309
307.669
307.103
307.958
305.324
309.379
308.895
313.198
308.517
306.578
308.73
309.979
305.93
310.071
306.08
313.527
311.405
307.013
312.387
310.284
308.262
311.539
313.182
311.084
311.682
311.35
306.955
307.202
308.298
307.63
309.389
)
