
63
(
-32.8897
-75.0023
-27.1513
-34.1557
-30.8764
-31.5238
-33.7879
-40.3847
-32.8204
-26.5151
-36.4558
-35.0714
-33.7709
-36.6407
-36.3157
-36.9947
-29.3774
-18.476
-36.1111
-38.5512
-50.5071
-42.0521
-26.6363
-19.5919
-37.174
-34.858
-46.0628
-29.1074
-24.8832
-34.337
-35.2254
-30.5475
-42.3392
-41.7577
-28.1223
-32.0182
-44.3287
-40.2672
-37.5815
-32.8488
-37.3608
-37.0263
-43.5078
-28.393
-31.681
-39.7759
-39.2642
-29.3009
-37.8331
-37.2419
-46.0654
-32.5177
-32.4883
-29.7478
-32.1446
-27.1002
-30.31
-30.2065
-18.1305
-32.6004
-34.0037
-20.0807
-38.5135
)
