
63
(
309.162
318.039
310.511
308.574
307.907
308.732
309.588
308.873
308.312
308.579
309.326
309.586
310.017
309.392
309.417
311.408
307.921
306.257
308.258
308.94
313.502
312.402
308.534
306.645
308.367
307.948
312.933
310.168
307.914
308.514
312.816
309.773
310.39
313.586
309.895
308.562
313.987
309.816
309.846
308.928
308.621
308.481
313.97
309.29
308.495
313.161
313.379
308.482
308.717
308.419
312.872
309.152
308.735
308.991
308.586
308.231
307.366
307.387
306.393
308.577
308.883
306.125
308.629
)
