# Source : cellZone face_T
# Cells  : 209
# Time	sum(V)	volAverage(T)	volAverage(X)	volAverage(p)	volAverage(Qr)
75	0.00323678	301.226	0.0107727	100040	0
