# Source : cellZone face_T
# Cells  : 209
# Time	sum(V)	volAverage(T)	volAverage(X)	volAverage(p)	volAverage(Qr)
345	0.00323678	301.364	0.0104217	100039	0
