
771
(
0.367598
0.451335
0.506404
0.310045
0.48818
0.627202
0.234388
0.454326
0.618625
0.145542
0.384601
0.563153
0.0493511
0.293113
0.479928
-0.0510527
0.181689
0.371299
-0.15583
0.0556739
0.246377
-0.265234
-0.0717995
0.119722
-0.385782
-0.190732
0.00446121
-0.485723
-0.283756
-0.100037
0.0764802
0.250552
0.430274
0.618645
0.810518
0.98918
1.12194
1.16336
1.15721
1.2599
1.20294
1.00267
0.72281
0.416584
0.121723
-0.141195
-0.357475
-0.508673
-0.586613
-0.619864
-0.716534
-0.527868
-0.337123
-0.175656
-0.0226871
0.132041
0.295682
0.471199
0.654526
0.830003
0.966631
1.0297
1.10818
1.23978
1.20816
1.0243
0.746654
0.432456
0.126949
-0.144395
-0.364092
-0.511248
-0.57652
-0.594677
-0.667304
-0.547829
-0.375763
-0.23531
-0.106376
0.0232598
0.160918
0.309837
0.467356
0.620717
0.746619
0.830746
0.989494
1.14024
1.14165
0.990808
0.733285
0.42574
0.119
-0.154081
-0.371131
-0.508921
-0.560435
-0.565962
-0.62336
-0.553172
-0.399077
-0.278458
-0.172619
-0.0701392
0.035664
0.148083
0.265832
0.381479
0.481827
0.573704
0.796187
0.959421
0.998281
0.893799
0.675287
0.391566
0.0954652
-0.172173
-0.381993
-0.509289
-0.551499
-0.553866
-0.609299
-0.550822
-0.413009
-0.310846
-0.227824
-0.153229
-0.0816156
-0.010047
0.0620246
0.134616
0.191113
0.301039
0.544838
0.711977
0.783789
0.73188
0.567714
0.3268
0.0571117
-0.195816
-0.395784
-0.51719
-0.560967
-0.572419
-0.635241
-0.543522
-0.419738
-0.334405
-0.272544
-0.224367
-0.18579
-0.15385
-0.122922
-0.103527
-0.0945175
0.0516754
0.271116
0.430404
0.523048
0.520965
0.419686
0.237881
0.0115933
-0.216585
-0.407061
-0.532476
-0.592151
-0.623098
-0.696306
-0.533691
-0.423174
-0.354095
-0.312155
-0.288757
-0.279971
-0.278635
-0.289129
-0.323027
-0.332957
-0.154853
0.016838
0.155733
0.255798
0.293288
0.25357
0.138704
-0.0333576
-0.230294
-0.414051
-0.553939
-0.640199
-0.69451
-0.775017
-0.525226
-0.427071
-0.37364
-0.350883
-0.350456
-0.36454
-0.390263
-0.440297
-0.515406
-0.476158
-0.315626
-0.184195
-0.0693784
0.0282376
0.0917834
0.101865
0.0471077
-0.0727844
-0.239709
-0.419517
-0.577688
-0.691146
-0.764683
-0.846308
-0.519463
-0.433719
-0.396429
-0.393371
-0.414214
-0.445939
-0.498637
-0.584019
-0.65603
-0.536543
-0.413084
-0.308718
-0.211167
-0.118364
-0.0417039
-0.00201688
-0.0191093
-0.104672
-0.250866
-0.427388
-0.596305
-0.724819
-0.806879
-0.885037
-0.518814
-0.445333
-0.425479
-0.442678
-0.478819
-0.530654
-0.612522
-0.718248
-0.690875
-0.552999
-0.443339
-0.346067
-0.251605
-0.160321
-0.0820493
-0.038496
-0.0502641
-0.129778
-0.270161
-0.441392
-0.60541
-0.728622
-0.805063
-0.877765
-0.523528
-0.463532
-0.462805
-0.500599
-0.551933
-0.627201
-0.735505
-0.796106
-0.655424
-0.522483
-0.406127
-0.29604
-0.191156
-0.0980446
-0.0303891
-0.00847955
-0.0472996
-0.149072
-0.298262
-0.462256
-0.605878
-0.704096
-0.761731
-0.827058
-0.535106
-0.488996
-0.509497
-0.563604
-0.634834
-0.737193
-0.847651
-0.750431
-0.589741
-0.443684
-0.303862
-0.169139
-0.0480785
0.0433879
0.0866183
0.0664036
-0.0213712
-0.162992
-0.3305
-0.487558
-0.604011
-0.667118
-0.697529
-0.752206
-0.552876
-0.522193
-0.566297
-0.636303
-0.733088
-0.854327
-0.846413
-0.663654
-0.489372
-0.318074
-0.147275
0.0134316
0.144943
0.223376
0.228348
0.153316
0.00972966
-0.173967
-0.361018
-0.514823
-0.608634
-0.63943
-0.641381
-0.680354
-0.576249
-0.56405
-0.633767
-0.723062
-0.848057
-0.922406
-0.745842
-0.551324
-0.356392
-0.155716
0.0429301
0.219803
0.347159
0.397187
0.353533
0.221443
0.0288981
-0.186805
-0.387966
-0.542194
-0.624844
-0.635224
-0.614625
-0.635371
-0.604715
-0.615907
-0.706082
-0.823684
-0.952706
-0.825618
-0.622464
-0.416568
-0.200498
0.0228818
0.236543
0.412445
0.517722
0.526113
0.430462
0.249247
0.0216694
-0.210735
-0.417391
-0.573435
-0.655693
-0.66044
-0.627827
-0.632816
-0.637738
-0.680552
-0.791072
-0.941287
-0.898375
-0.692345
-0.486184
-0.270084
-0.0407315
0.191028
0.401339
0.556932
0.624921
0.585253
0.442017
0.225387
-0.0204163
-0.256279
-0.46038
-0.616175
-0.702646
-0.71219
-0.679444
-0.676266
-0.673717
-0.760809
-0.895785
-0.966646
-0.761579
-0.5556
-0.34823
-0.128322
0.100871
0.323197
0.51077
0.63007
0.652073
0.565784
0.385802
0.149204
-0.100176
-0.330456
-0.525288
-0.675936
-0.764661
-0.782983
-0.759709
-0.758737
-0.710758
-0.849826
-1.00582
-0.839015
-0.625323
-0.425397
-0.22137
-0.00852419
0.205586
0.401676
0.551548
0.624627
0.599337
0.47371
0.269851
0.0269375
-0.215564
-0.432882
-0.614188
-0.752918
-0.838253
-0.864659
-0.855751
-0.865412
-0.76285
-0.986552
-0.929971
-0.700639
-0.499648
-0.309323
-0.117283
0.0766328
0.262387
0.420219
0.524251
0.549582
0.482118
0.327359
0.111131
-0.129154
-0.359474
-0.560468
-0.724483
-0.845599
-0.921626
-0.952565
-0.959572
-0.985726
-0.818828
-1.0058
-0.792813
-0.576011
-0.388883
-0.213397
-0.0423728
0.122149
0.269933
0.383318
0.440959
0.423949
0.324837
0.153048
-0.0658958
-0.298404
-0.515653
-0.700517
-0.846731
-0.950835
-1.0144
-1.04732
-1.06925
-1.11507
-0.890804
-0.910614
-0.668093
-0.467603
-0.295517
-0.140296
0.00217793
0.130137
0.235297
0.303806
0.319482
0.269847
0.151745
-0.0245981
-0.236743
-0.457287
-0.662109
-0.835444
-0.969675
-1.06229
-1.11694
-1.1514
-1.18679
-1.2528
-0.909608
-0.793654
-0.566589
-0.381411
-0.223117
-0.090832
0.0189706
0.107462
0.169771
0.196786
0.178133
0.106307
-0.0190625
-0.188746
-0.385421
-0.588289
-0.778788
-0.943678
-1.0745
-1.167
-1.22423
-1.26393
-1.31223
-1.3965
-0.866674
-0.708998
-0.505452
-0.329265
-0.177958
-0.065768
0.0117438
0.0617243
0.0844991
0.0761657
0.0313933
-0.0532669
-0.176607
-0.33155
-0.505926
-0.685206
-0.856536
-1.01096
-1.1432
-1.24952
-1.32855
-1.38728
-1.45327
-1.55896
-0.80733
-0.681185
-0.511976
-0.332062
-0.170506
-0.0678223
-0.017108
-0.00100708
-0.0120271
-0.0485995
-0.111801
-0.202168
-0.318029
-0.455538
-0.605831
-0.759315
-0.908029
-1.04761
-1.17758
-1.29972
-1.41283
-1.51098
-1.61104
-1.75001
-0.735079
-0.706649
-0.602501
-0.419486
-0.217653
-0.102326
-0.0675952
-0.0773431
-0.114765
-0.172489
-0.247792
-0.33913
-0.445806
-0.565325
-0.692111
-0.820652
-0.946945
-1.07029
-1.19432
-1.32579
-1.46853
-1.61449
-1.76873
-1.96172
-0.651669
-0.696319
-0.793577
-0.623519
-0.340816
-0.177004
-0.142195
-0.166895
-0.222116
-0.294099
-0.376354
-0.465619
-0.562104
-0.664537
-0.76968
-0.875175
-0.980289
-1.08767
-1.20409
-1.33991
-1.50376
-1.69012
-1.90155
-2.16385
-0.583844
-0.660369
-0.761843
-0.821678
-0.568632
-0.299753
-0.245112
-0.271811
-0.335318
-0.414747
-0.499449
-0.584564
-0.671016
-0.758294
-0.844696
-0.929762
-1.01516
-1.10619
-1.21262
-1.34786
-1.52386
-1.73861
-1.99468
-2.31354
-0.56352
-0.658578
-0.756783
-0.802546
-0.796142
-0.475171
-0.380198
-0.395752
-0.457434
-0.537186
-0.620131
-0.699446
-0.776748
-0.851635
-0.923023
-0.990917
-1.05871
-1.13315
-1.226
-1.35328
-1.53011
-1.75886
-2.04342
-2.39147
-0.639962
-0.72686
-0.729154
-0.721706
-0.745654
-0.687443
-0.547921
-0.542661
-0.592845
-0.665941
-0.742599
-0.814473
-0.883543
-0.948806
-1.00864
-1.06365
-1.11686
-1.17526
-1.25151
-1.36239
-1.52479
-1.7461
-2.03717
-2.39267
-0.671791
-0.573787
-0.537157
-0.568198
-0.656419
-0.783598
-0.743536
-0.71199
-0.746743
-0.808065
-0.874362
-0.936809
-0.997657
-1.05463
-1.10549
-1.15086
-1.19326
-1.23854
-1.29851
-1.38753
-1.52041
-1.70918
-1.97515
-2.31988
-0.329202
-0.32523
-0.367548
-0.451355
-0.577454
-0.774961
-0.938361
-0.893206
-0.921499
-0.974245
-1.03124
-1.08607
-1.1349
-1.17869
-1.2167
-1.25207
-1.28677
-1.32611
-1.37723
-1.44874
-1.54613
-1.67839
-1.86817
-2.14247
)
