
771
(
301.338
301.328
301.317
301.334
301.31
301.288
301.329
301.302
301.28
301.325
301.297
301.277
301.323
301.296
301.278
301.322
301.298
301.282
301.324
301.304
301.289
301.33
301.313
301.298
301.342
301.323
301.306
301.353
301.33
301.314
301.302
301.294
301.289
301.286
301.286
301.29
301.3
301.319
301.333
301.306
301.289
301.282
301.282
301.284
301.287
301.292
301.298
301.305
301.313
301.325
301.353
301.356
301.333
301.319
301.309
301.302
301.299
301.297
301.299
301.304
301.317
301.338
301.342
301.316
301.3
301.294
301.292
301.294
301.297
301.301
301.305
301.311
301.318
301.33
301.356
301.357
301.336
301.323
301.315
301.31
301.307
301.307
301.311
301.319
301.334
301.353
301.347
301.325
301.31
301.304
301.302
301.303
301.305
301.307
301.311
301.315
301.322
301.333
301.356
301.357
301.337
301.326
301.319
301.315
301.315
301.317
301.322
301.333
301.349
301.366
301.35
301.332
301.319
301.312
301.31
301.31
301.311
301.313
301.315
301.319
301.325
301.335
301.357
301.357
301.339
301.329
301.323
301.322
301.323
301.327
301.335
301.347
301.365
301.374
301.353
301.338
301.326
301.32
301.317
301.316
301.316
301.317
301.318
301.321
301.327
301.337
301.356
301.357
301.341
301.332
301.328
301.328
301.332
301.338
301.348
301.362
301.382
301.377
301.357
301.343
301.333
301.327
301.323
301.322
301.321
301.321
301.321
301.324
301.328
301.337
301.356
301.357
301.342
301.335
301.334
301.336
301.342
301.35
301.362
301.381
301.397
301.378
301.361
301.349
301.34
301.333
301.329
301.327
301.325
301.324
301.324
301.325
301.329
301.338
301.355
301.358
301.344
301.339
301.34
301.345
301.353
301.364
301.38
301.401
301.402
301.379
301.365
301.354
301.346
301.339
301.335
301.332
301.329
301.327
301.327
301.327
301.33
301.338
301.354
301.359
301.347
301.345
301.349
301.357
301.367
301.381
301.401
301.42
301.401
301.382
301.369
301.359
301.351
301.345
301.34
301.336
301.333
301.331
301.329
301.329
301.331
301.338
301.353
301.36
301.351
301.351
301.359
301.369
301.383
301.402
301.426
301.424
301.401
301.385
301.374
301.364
301.357
301.35
301.345
301.34
301.337
301.334
301.332
301.331
301.332
301.338
301.352
301.362
301.355
301.36
301.371
301.385
301.403
301.428
301.445
301.422
301.403
301.389
301.378
301.369
301.362
301.355
301.349
301.345
301.341
301.337
301.334
301.333
301.333
301.338
301.351
301.366
301.362
301.37
301.385
301.404
301.429
301.456
301.445
301.423
301.406
301.394
301.383
301.374
301.367
301.36
301.354
301.349
301.344
301.34
301.337
301.335
301.335
301.339
301.351
301.37
301.37
301.384
301.403
301.428
301.459
301.467
301.443
301.425
301.41
301.398
301.388
301.38
301.372
301.365
301.359
301.353
301.348
301.344
301.34
301.337
301.336
301.34
301.35
301.376
301.38
301.401
301.426
301.459
301.484
301.463
301.443
301.428
301.415
301.404
301.394
301.385
301.378
301.371
301.364
301.358
301.352
301.348
301.343
301.34
301.338
301.341
301.35
301.383
301.394
301.42
301.453
301.491
301.481
301.46
301.444
301.431
301.419
301.409
301.4
301.391
301.383
301.376
301.369
301.363
301.357
301.352
301.347
301.343
301.341
301.343
301.351
301.393
301.411
301.444
301.487
301.494
301.473
301.457
301.444
301.433
301.424
301.414
301.406
301.398
301.39
301.382
301.375
301.369
301.362
301.356
301.351
301.347
301.344
301.345
301.352
301.404
301.434
301.474
301.504
301.483
301.466
301.453
301.443
301.435
301.427
301.419
301.412
301.404
301.397
301.389
301.382
301.375
301.368
301.362
301.356
301.351
301.347
301.347
301.353
301.418
301.46
301.507
301.493
301.472
301.459
301.449
301.441
301.435
301.428
301.422
301.416
301.41
301.403
301.396
301.389
301.382
301.375
301.368
301.362
301.356
301.352
301.351
301.356
301.438
301.498
301.505
301.48
301.464
301.453
301.445
301.438
301.433
301.428
301.424
301.419
301.414
301.409
301.404
301.397
301.391
301.384
301.377
301.369
301.362
301.357
301.355
301.359
301.461
301.515
301.493
301.471
301.457
301.447
301.44
301.435
301.43
301.427
301.423
301.42
301.416
301.413
301.409
301.404
301.399
301.393
301.386
301.378
301.371
301.364
301.361
301.363
301.49
301.512
301.484
301.465
301.452
301.443
301.436
301.431
301.427
301.424
301.421
301.419
301.416
301.414
301.412
301.409
301.406
301.401
301.396
301.389
301.381
301.374
301.369
301.37
301.511
301.506
301.48
301.462
301.449
301.439
301.433
301.428
301.425
301.421
301.419
301.417
301.415
301.413
301.411
301.41
301.409
301.407
301.404
301.4
301.393
301.386
301.38
301.379
301.521
301.508
301.485
301.465
301.449
301.437
301.43
301.425
301.422
301.419
301.417
301.414
301.412
301.41
301.409
301.408
301.408
301.408
301.408
301.408
301.405
301.399
301.394
301.391
301.529
301.52
301.501
301.477
301.453
301.438
301.429
301.423
301.42
301.417
301.414
301.412
301.41
301.408
301.407
301.406
301.405
301.406
301.408
301.411
301.414
301.414
301.41
301.408
301.534
301.542
301.533
301.503
301.465
301.441
301.429
301.422
301.418
301.415
301.413
301.411
301.409
301.407
301.406
301.404
301.404
301.404
301.407
301.412
301.419
301.424
301.427
301.428
301.536
301.555
301.58
301.548
301.489
301.449
301.431
301.422
301.417
301.414
301.412
301.41
301.408
301.406
301.405
301.404
301.404
301.404
301.407
301.412
301.421
301.431
301.44
301.448
301.537
301.558
301.58
301.587
301.528
301.462
301.436
301.423
301.417
301.414
301.411
301.409
301.407
301.406
301.406
301.405
301.405
301.405
301.408
301.413
301.423
301.435
301.448
301.461
301.544
301.563
301.579
301.579
301.563
301.482
301.444
301.426
301.418
301.414
301.411
301.409
301.408
301.407
301.407
301.406
301.406
301.407
301.41
301.416
301.425
301.438
301.452
301.466
301.564
301.577
301.568
301.552
301.539
301.506
301.456
301.433
301.422
301.416
301.413
301.41
301.409
301.409
301.408
301.409
301.409
301.41
301.413
301.418
301.427
301.439
301.451
301.462
301.57
301.541
301.519
301.507
301.502
301.504
301.473
301.444
301.429
301.422
301.417
301.414
301.413
301.412
301.412
301.412
301.413
301.414
301.417
301.422
301.43
301.439
301.448
301.454
301.494
301.48
301.469
301.464
301.465
301.48
301.489
301.458
301.443
301.434
301.429
301.426
301.423
301.421
301.42
301.419
301.419
301.42
301.423
301.429
301.435
301.441
301.445
301.442
)
