
54
(
-45.8606
-61.5312
-48.4609
-45.8693
-17.6899
-52.8153
-34.3586
-46.7219
-47.5608
-42.4649
-51.3584
-75.7084
-41.6071
-40.3051
-51.0764
-34.5407
-47.9019
-42.8746
-44.8847
-47.7735
-44.8179
-41.485
-51.3596
-46.6464
-53.2714
-39.9016
-44.1164
-41.1116
-55.4108
-39.9704
-45.2089
-60.217
-42.6991
-37.4207
-43.6353
-41.133
-42.87
-40.6479
-51.6925
-42.1359
-47.1533
-49.0939
-44.7271
-44.9269
-41.7509
-35.0232
-29.6492
-48.7314
-46.6502
-42.5953
-42.8225
-38.5643
-48.0174
-41.4516
)
