
54
(
313.926
315.929
315.529
311.924
308.633
311.12
309.275
310.462
310.748
310.584
310.829
318.025
313.331
309.172
310.858
309.215
310.43
310.79
310.461
310.369
311.048
309.307
310.617
311.668
310.909
312.646
309.626
309.456
316.278
309.901
309.765
318.766
310.927
314.634
311.357
309.088
310.337
310.111
311.125
310.979
310.553
310.758
311.453
310.63
314.67
309.401
310.318
310.502
310.406
315.051
314.499
309.387
310.304
309.371
)
